Executable      : /project/p_trildft/bin/siesta
Version         : 5.2.2
Architecture    : x86_64
Compiler version: GNU-11.2.1
Compiler flags  : -m64 -I/scratch/software/packages/intel/mkl/2023.1.0/include -fallow-argument-mismatch -O3 -march=native
Parallelisations: MPI, OpenMP
* OpenMP version: 201511
NetCDF support
NetCDF-4 support
Lua support
Native ELPA support
ELSI support. Solvers:
   ELPA (internal) 
   NTPoly
   OMM

Runtime information:
* Directory : /project/p_trildft/Fe3GxTe2/lattice_relaxation/optimal_Ge/ratio_100
* Running on 4 nodes in parallel.
* Running 1 OpenMP threads.
* Running 4 processes.
* OpenMP NOT bound (please bind threads!)
* OpenMP runtime schedule DYNAMIC, chunks 1
** Changing chunk size:
** OpenMP runtime schedule DYNAMIC, chunks 32
** OpenMP (trying to FORCE nesting)
* OpenMP allows 2147483647 nested levels.
>> Start of run:   5-MAY-2025  15:02:57

                           *********************** 
                           *  WELCOME TO SIESTA  * 
                           *********************** 

 NOTE: Siesta V5 introduces some new defaults for basis-set generation
 NOTE: which might lead to slightly different numerical results.
 NOTE: Please see the manual for full details and compatibility measures.


reinit: Reading from standard input
reinit: Dumping input in INPUT_TMP.66113
************************** Dump of input data file ****************************
# FDF file for Fe3GeTe2
# General System descriptors
SystemName Fe3GeTe2                  # Descriptive name of the system
SystemLabel Fe3GeTe2_relax           # Short name for naming files
NumberOfAtoms           6            # Number of atoms
NumberOfSpecies         3            # Number of species
%block Chemical_Species_Label
  1  26  Fe
  2  32  Ge
  3  52  Te
%endblock Chemical_Species_Label
PAO.BasisSize      DZP
PAO.EnergyShift    0.001 Ry
# Lattice, coordinates, k-sampling
AtomicCoordinatesFormat Ang #link: https://c2db.fysik.dtu.dk/material/1GeTe2Fe3-1
%block AtomicCoordinatesAndAtomicSpecies
       2.3659053000      1.7565516000     12.6863155300                 3
       2.3659053200      1.7565515200      7.5354052800                 3
       0.3378719300      2.9274093600     10.1108346300                 2
       0.3378767100      0.5856540700     11.3527281700                 1
       0.3378767400      0.5856540900      8.8689175800                 1
       2.3659139900      1.7565353000     10.1108330000                 1
%endblock AtomicCoordinatesAndAtomicSpecies
%block LatticeVectors
   4.097694   0.000000   0.000000
   -2.048847   3.548707   0.000000
   0.000000   0.000000  30.00000
%endblock LatticeVectors
%block kgrid_Monkhorst_Pack
  30   0   0
  0   30   0
  0   0   1
%endblock kgrid_Monkhorst_Pack
# DFT, Grid, SCF
XC.functional          GGA
XC.authors             PBE
SpinPolarized          .true.       # Spin polarized calculation
MeshCutoff              1200 Ry     # Equivalent planewave cutoff for the grid10
MaxSCFIterations        300         # Maximum number of SCF iterations per step
DM.MixingWeight         0.1         # New DM amount for next SCF cycle
DM.Tolerance            1.d-4       # Tolerance in maximum difference
                                    # between input and output DM
SCF.Mixer.History       4           # Number of SCF steps between pulay mixing
# Eigenvalue problem: order-N or diagonalization
SolutionMethod          diagon      # OrderN or Diagon
ElectronicTemperature   5 K        # Temp. for Fermi smearing
# Molecular dynamics and relaxations
MD.TypeOfRun            CG
MD.Steps                1000
MD.MaxCGDispl           0.05 Ang
MD.MaxForceTol          0.005 eV/Ang
MD.UseSaveXV            T
MD.UseSaveCG            T
# Output options
WriteCoorInitial        .true.
WriteCoorStep           .true.
WriteForces             .true.
WriteKpoints            .false.
WriteEigenvalues        .false.
WriteKbands             .false.
WriteBands              .false.
WriteMullikenPop        1            # Write Mulliken Population Analysis
WriteCoorXmol           .false.
WriteMDCoorXmol         .false.
WriteMDhistory          .false.
WriteCoorXmol           .false.
# Options for saving/reading information
DM.UseSaveDM             T           # Use DM Continuation files
MD.UseSaveXV            .false.      # Use stored positions and velocities
MD.UseSaveCG            .false.      # Use stored positions and velocities
SaveRho                  T           # Write valence pseudocharge at the mesh
SaveDeltaRho             T           # Write RHOscf-RHOatm at the mesh
SaveElectrostaticPotential .false.   # Write the total elect. pot. at the mesh
SaveTotalPotential      .false.      # Write the total pot. at the mesh
WriteSiestaDim          .false.      # Write minimum dim to siesta.h and stop
WriteDenchar             T           # Write information for DENCHAR
Diag.ParallelOverK       T
************************** End of input data file *****************************

reinit: -----------------------------------------------------------------------
reinit: System Name: Fe3GeTe2
reinit: -----------------------------------------------------------------------
reinit: System Label: Fe3GeTe2_relax
reinit: -----------------------------------------------------------------------

NOTE on units for spin output: 
{S} is the spin magnetic moment, in units of the Bohr magneton,
assuming a g-factor for the electron spin of exactly 2.
The spin magnetic moment is then numerically equal to the charge inbalance,
in units of electrons, between the spin-up and -down channels.


initatom: Reading input for the pseudopotentials and atomic orbitals ----------
Species number:   1 Atomic number:   26 Label: Fe
Species number:   2 Atomic number:   32 Label: Ge
Species number:   3 Atomic number:   52 Label: Te

Ground state valence configuration (from tables):   4s02  4p00  3d06  4f00
Ground state valence configuration (from tables):   4s02  4p02  4d00  4f00
Ground state valence configuration (from tables):   5s02  5p04  5d00  4f00

---- Processing specs for species: Fe
Reading pseudopotential information in formatted form from:
  Fe.psf

---- Processing specs for species: Ge
Reading pseudopotential information in formatted form from:
  Ge.psf

---- Processing specs for species: Te
Reading pseudopotential information in formatted form from:
  Te.psf

---- Pseudopotential check for Fe

Pseudopotential generated from a fully relativistic atomic calculation
There are spin-orbit semi-local pseudopotentials available

Pseudized shells:
4s( 2.00) rc: 1.72
4p( 0.00) rc: 2.15
3d( 6.00) rc: 0.84
4f( 0.00) rc: 2.00
Valence configuration for ps generation: (assumed as above)

---- Pseudopotential check for Ge

Pseudopotential generated from a fully relativistic atomic calculation
There are spin-orbit semi-local pseudopotentials available

Pseudized shells:
4s( 2.00) rc: 3.03
4p( 2.00) rc: 2.33
4d( 0.00) rc: 2.48
4f( 0.00) rc: 2.99
Valence configuration for ps generation: (assumed as above)

---- Pseudopotential check for Te

Pseudopotential generated from a fully relativistic atomic calculation
There are spin-orbit semi-local pseudopotentials available

Pseudized shells:
5s( 2.00) rc: 2.75
5p( 4.00) rc: 1.65
5d( 0.00) rc: 2.75
4f( 0.00) rc: 2.68
Valence configuration for ps generation: (assumed as above)
For Fe, standard SIESTA heuristics set lmxkb to 3
 (one more than the basis l, including polarization orbitals).
Use PS.lmax or PS.KBprojectors blocks to override.
For Ge, standard SIESTA heuristics set lmxkb to 3
 (one more than the basis l, including polarization orbitals).
Use PS.lmax or PS.KBprojectors blocks to override.
For Te, standard SIESTA heuristics set lmxkb to 3
 (one more than the basis l, including polarization orbitals).
Use PS.lmax or PS.KBprojectors blocks to override.

<basis_specs>
===============================================================================
Fe                   Z=  26    Mass=  55.845        Charge= 0.17977+309
Lmxo=2 Lmxkb= 3    BasisType=split      Semic=F
L=0  Nsemic=0  Cnfigmx=4
          i=1  nzeta=2  polorb=1  (4s)  (to be polarized perturbatively)
            splnorm:   0.15000    
               vcte:    40.000    
               rinn:  -0.90000    
               qcoe:    0.0000    
               qyuk:    0.0000    
               qwid:   0.10000E-01
                rcs:    0.0000      0.0000    
            lambdas:    1.0000      1.0000    
L=1  Nsemic=0  Cnfigmx=4
          i=1  nzeta=0  polorb=0  (4p)  (perturbative polarization orbital) (from 4s)
L=2  Nsemic=0  Cnfigmx=3
          i=1  nzeta=2  polorb=0  (3d)
            splnorm:   0.15000    
               vcte:    40.000    
               rinn:  -0.90000    
               qcoe:    0.0000    
               qyuk:    0.0000    
               qwid:   0.10000E-01
                rcs:    0.0000      0.0000    
            lambdas:    1.0000      1.0000    
-------------------------------------------------------------------------------
L=0  Nkbl=1  erefs: 0.17977+309
L=1  Nkbl=1  erefs: 0.17977+309
L=2  Nkbl=1  erefs: 0.17977+309
L=3  Nkbl=1  erefs: 0.17977+309
===============================================================================
</basis_specs>

Using PAO.SplitTailNorm
atom: Called for Fe                    (Z =  26)
Maximum radius (at nrval) set to   50.00000 8518

read_vps: Pseudopotential generation method:
read_vps: ATM4.2.7  Troullier-Martins                       
Valence charge in pseudo generation:    8.00000

read_vps: Pseudopotential includes a core correction:
read_vps: Pseudo-core for xc-correction

xc_check: Exchange-correlation functional:
xc_check: GGA Perdew, Burke & Ernzerhof 1996
V l=0 = -2*Zval/r beyond r=  2.7517
V l=1 = -2*Zval/r beyond r=  2.7517
V l=2 = -2*Zval/r beyond r=  2.7517
V l=3 = -2*Zval/r beyond r=  2.7517
All V_l potentials equal beyond r=  2.1408
This should be close to max(r_c) in ps generation
All pots = -2*Zval/r beyond r=  2.7517
Using small-core scheme (local charge) for Vlocal

VLOCAL_FROM_CHLOCAL: 99.0% of the norm of Vloc inside      9.472 Ry
VLOCAL_FROM_CHLOCAL: 99.9% of the norm of Vloc inside     21.586 Ry
atom: Maximum radius for chlocal:    2.57269
atom: Maximum radius for r*vlocal+2*Zval:    2.37889

KBgen: Kleinman-Bylander projectors: 
GHOST: No ghost state for L =  0
   l= 0   rc=  2.928296   el= -0.388312   Ekb=  5.219433   kbcos=  0.240863
GHOST: No ghost state for L =  1
   l= 1   rc=  3.005693   el= -0.097563   Ekb=  2.157003   kbcos=  0.224184
GHOST: No ghost state for L =  2
   l= 2   rc=  2.588228   el= -0.553222   Ekb=-34.168208   kbcos= -0.542811
GHOST: No ghost state for L =  3
   l= 3   rc=  3.217894   el=  0.019212   Ekb= -1.637044   kbcos= -0.007020

KBgen: Total number of Kleinman-Bylander projectors:  16
atom: -------------------------------------------------------------------------

atom: SANKEY-TYPE ORBITALS:
atom: Selected multiple-zeta basis: split     

SPLIT: Orbitals with angular momentum L= 0

SPLIT: Basis orbitals for state 4s

SPLIT: PAO cut-off radius determined from an
SPLIT: energy shift=  0.001000 Ry
Split based on tail norm

   izeta = 1
                 lambda =    1.000000
                     rc =    8.950534
                 energy =   -0.387036
                kinetic =    0.294112
    potential(screened) =   -0.681149
       potential(ionic) =   -5.918860

   izeta = 2
                 rmatch =    5.732128
              splitnorm =    0.150000
                 energy =   -0.294432
                kinetic =    0.574543
    potential(screened) =   -0.868975
       potential(ionic) =   -6.678390

SPLIT: Orbitals with angular momentum L= 2

SPLIT: Basis orbitals for state 3d

SPLIT: PAO cut-off radius determined from an
SPLIT: energy shift=  0.001000 Ry
Split based on tail norm

   izeta = 1
                 lambda =    1.000000
                     rc =    5.567997
                 energy =   -0.552067
                kinetic =   13.500088
    potential(screened) =  -14.052155
       potential(ionic) =  -23.382853

   izeta = 2
                 rmatch =    2.872995
              splitnorm =    0.150000
                 energy =   -0.444868
                kinetic =   16.180141
    potential(screened) =  -16.625010
       potential(ionic) =  -26.515786

POLgen: Perturbative polarization orbital with L=  1

POLgen: Polarization orbital for state 4s
Split based on tail norm

   izeta = 1
                     rc =    8.950534
                 energy =   -0.060045
                kinetic =    0.514836
    potential(screened) =   -0.574880
       potential(ionic) =   -5.318417
atom: Total number of Sankey-type orbitals: 15

atm_pop: Valence configuration (for local Pseudopot. screening):
 4s( 2.00)                                                            
 4p( 0.00)                                                            
 3d( 6.00)                                                            
Vna: chval, zval:    8.00000   8.00000

Vna:  Cut-off radius for the neutral-atom potential:   8.950534
comcore: Pseudo-core radius Rcore=  3.744030

atom: _________________________________________________________________________

<basis_specs>
===============================================================================
Ge                   Z=  32    Mass=  72.630        Charge= 0.17977+309
Lmxo=2 Lmxkb= 3    BasisType=split      Semic=F
L=0  Nsemic=0  Cnfigmx=4
          i=1  nzeta=2  polorb=0  (4s)
            splnorm:   0.15000    
               vcte:    40.000    
               rinn:  -0.90000    
               qcoe:    0.0000    
               qyuk:    0.0000    
               qwid:   0.10000E-01
                rcs:    0.0000      0.0000    
            lambdas:    1.0000      1.0000    
L=1  Nsemic=0  Cnfigmx=4
          i=1  nzeta=2  polorb=1  (4p)  (to be polarized perturbatively)
            splnorm:   0.15000    
               vcte:    40.000    
               rinn:  -0.90000    
               qcoe:    0.0000    
               qyuk:    0.0000    
               qwid:   0.10000E-01
                rcs:    0.0000      0.0000    
            lambdas:    1.0000      1.0000    
L=2  Nsemic=0  Cnfigmx=4
          i=1  nzeta=0  polorb=0  (4d)  (perturbative polarization orbital) (from 4p)
-------------------------------------------------------------------------------
L=0  Nkbl=1  erefs: 0.17977+309
L=1  Nkbl=1  erefs: 0.17977+309
L=2  Nkbl=1  erefs: 0.17977+309
L=3  Nkbl=1  erefs: 0.17977+309
===============================================================================
</basis_specs>

Using PAO.SplitTailNorm
atom: Called for Ge                    (Z =  32)
Maximum radius (at nrval) set to   50.00000 8518

read_vps: Pseudopotential generation method:
read_vps: ATM4.2.7  Troullier-Martins                       
Valence charge in pseudo generation:    4.00000

xc_check: Exchange-correlation functional:
xc_check: GGA Perdew, Burke & Ernzerhof 1996
V l=0 = -2*Zval/r beyond r=  3.3129
V l=1 = -2*Zval/r beyond r=  3.3129
V l=2 = -2*Zval/r beyond r=  3.3129
V l=3 = -2*Zval/r beyond r=  3.3129
All V_l potentials equal beyond r=  2.9997
This should be close to max(r_c) in ps generation
All pots = -2*Zval/r beyond r=  3.3129
Using small-core scheme (local charge) for Vlocal

VLOCAL_FROM_CHLOCAL: 99.0% of the norm of Vloc inside      4.824 Ry
VLOCAL_FROM_CHLOCAL: 99.9% of the norm of Vloc inside     10.994 Ry
atom: Maximum radius for chlocal:    3.53958
atom: Maximum radius for r*vlocal+2*Zval:    3.28310

KBgen: Kleinman-Bylander projectors: 
GHOST: No ghost state for L =  0
   l= 0   rc=  3.424357   el= -0.860279   Ekb=  1.833947   kbcos=  0.322307
GHOST: No ghost state for L =  1
   l= 1   rc=  3.854490   el= -0.286425   Ekb= -4.037449   kbcos= -0.057278
GHOST: No ghost state for L =  2
   l= 2   rc=  4.036409   el=  0.012735   Ekb=  6.504870   kbcos=  0.016716
GHOST: No ghost state for L =  3
   l= 3   rc=  4.395395   el=  0.019197   Ekb= -0.605563   kbcos= -0.021530

KBgen: Total number of Kleinman-Bylander projectors:  16
atom: -------------------------------------------------------------------------

atom: SANKEY-TYPE ORBITALS:
atom: Selected multiple-zeta basis: split     

SPLIT: Orbitals with angular momentum L= 0

SPLIT: Basis orbitals for state 4s

SPLIT: PAO cut-off radius determined from an
SPLIT: energy shift=  0.001000 Ry
Split based on tail norm

   izeta = 1
                 lambda =    1.000000
                     rc =    6.614864
                 energy =   -0.859029
                kinetic =    0.465884
    potential(screened) =   -1.324913
       potential(ionic) =   -3.801590

   izeta = 2
                 rmatch =    4.052627
              splitnorm =    0.150000
                 energy =   -0.721100
                kinetic =    0.784255
    potential(screened) =   -1.505355
       potential(ionic) =   -4.149930

SPLIT: Orbitals with angular momentum L= 1

SPLIT: Basis orbitals for state 4p

SPLIT: PAO cut-off radius determined from an
SPLIT: energy shift=  0.001000 Ry
Split based on tail norm

   izeta = 1
                 lambda =    1.000000
                     rc =    9.260430
                 energy =   -0.285168
                kinetic =    0.727235
    potential(screened) =   -1.012403
       potential(ionic) =   -3.160117

   izeta = 2
                 rmatch =    5.824741
              splitnorm =    0.150000
                 energy =   -0.228611
                kinetic =    1.031949
    potential(screened) =   -1.260560
       potential(ionic) =   -3.597829

POLgen: Perturbative polarization orbital with L=  2

POLgen: Polarization orbital for state 4p
Split based on tail norm

   izeta = 1
                     rc =    9.260430
                 energy =    0.317125
                kinetic =    1.027706
    potential(screened) =   -0.710581
       potential(ionic) =   -2.611479
atom: Total number of Sankey-type orbitals: 13

atm_pop: Valence configuration (for local Pseudopot. screening):
 4s( 2.00)                                                            
 4p( 2.00)                                                            
 4d( 0.00)                                                            
Vna: chval, zval:    4.00000   4.00000

Vna:  Cut-off radius for the neutral-atom potential:   9.260430

atom: _________________________________________________________________________

<basis_specs>
===============================================================================
Te                   Z=  52    Mass=  127.60        Charge= 0.17977+309
Lmxo=2 Lmxkb= 3    BasisType=split      Semic=F
L=0  Nsemic=0  Cnfigmx=5
          i=1  nzeta=2  polorb=0  (5s)
            splnorm:   0.15000    
               vcte:    40.000    
               rinn:  -0.90000    
               qcoe:    0.0000    
               qyuk:    0.0000    
               qwid:   0.10000E-01
                rcs:    0.0000      0.0000    
            lambdas:    1.0000      1.0000    
L=1  Nsemic=0  Cnfigmx=5
          i=1  nzeta=2  polorb=1  (5p)  (to be polarized perturbatively)
            splnorm:   0.15000    
               vcte:    40.000    
               rinn:  -0.90000    
               qcoe:    0.0000    
               qyuk:    0.0000    
               qwid:   0.10000E-01
                rcs:    0.0000      0.0000    
            lambdas:    1.0000      1.0000    
L=2  Nsemic=0  Cnfigmx=5
          i=1  nzeta=0  polorb=0  (5d)  (perturbative polarization orbital) (from 5p)
-------------------------------------------------------------------------------
L=0  Nkbl=1  erefs: 0.17977+309
L=1  Nkbl=1  erefs: 0.17977+309
L=2  Nkbl=1  erefs: 0.17977+309
L=3  Nkbl=1  erefs: 0.17977+309
===============================================================================
</basis_specs>

Using PAO.SplitTailNorm
atom: Called for Te                    (Z =  52)
Maximum radius (at nrval) set to   50.00000 8518

read_vps: Pseudopotential generation method:
read_vps: ATM4.2.7  Troullier-Martins                       
Valence charge in pseudo generation:    6.00000

xc_check: Exchange-correlation functional:
xc_check: GGA Perdew, Burke & Ernzerhof 1996
V l=0 = -2*Zval/r beyond r=  3.5431
V l=1 = -2*Zval/r beyond r=  3.5431
V l=2 = -2*Zval/r beyond r=  3.5431
V l=3 = -2*Zval/r beyond r=  3.5431
All V_l potentials equal beyond r=  2.7242
This should be close to max(r_c) in ps generation
All pots = -2*Zval/r beyond r=  3.5431
Using large-core scheme (fit) for Vlocal

atom: Estimated core radius    3.54313

atom: Including non-local core corrections could be a good idea
Fit of Vlocal with continuous 2nd derivative
Fitting vlocal at       2.7324
Choosing vlocal chloc cutoff:  5904  3.651342
qtot up to nchloc:    5.99925947
atom: Maximum radius for chlocal:    3.65134
atom: Maximum radius for r*vlocal+2*Zval:    4.04451

KBgen: Kleinman-Bylander projectors: 
GHOST: No ghost state for L =  0
   l= 0   rc=  2.724175   el= -1.105865   Ekb=  3.854775   kbcos=  0.453348
GHOST: No ghost state for L =  1
   l= 1   rc=  2.743382   el= -0.435997   Ekb=  6.320309   kbcos=  0.211830
GHOST: No ghost state for L =  2
   l= 2   rc=  2.773836   el=  0.012840   Ekb=  0.926937   kbcos=  0.169273
GHOST: No ghost state for L =  3
   l= 3   rc=  2.746136   el=  0.019218   Ekb= -3.740213   kbcos= -0.018877

KBgen: Total number of Kleinman-Bylander projectors:  16
atom: -------------------------------------------------------------------------

atom: SANKEY-TYPE ORBITALS:
atom: Selected multiple-zeta basis: split     

SPLIT: Orbitals with angular momentum L= 0

SPLIT: Basis orbitals for state 5s

SPLIT: PAO cut-off radius determined from an
SPLIT: energy shift=  0.001000 Ry
Split based on tail norm

   izeta = 1
                 lambda =    1.000000
                     rc =    6.204155
                 energy =   -1.104618
                kinetic =    0.528610
    potential(screened) =   -1.633228
       potential(ionic) =   -5.590619

   izeta = 2
                 rmatch =    3.827533
              splitnorm =    0.150000
                 energy =   -0.920043
                kinetic =    0.944121
    potential(screened) =   -1.864164
       potential(ionic) =   -6.032782

SPLIT: Orbitals with angular momentum L= 1

SPLIT: Basis orbitals for state 5p

SPLIT: PAO cut-off radius determined from an
SPLIT: energy shift=  0.001000 Ry
Split based on tail norm

   izeta = 1
                 lambda =    1.000000
                     rc =    8.179311
                 energy =   -0.434744
                kinetic =    0.867182
    potential(screened) =   -1.301925
       potential(ionic) =   -4.844615

   izeta = 2
                 rmatch =    5.123716
              splitnorm =    0.150000
                 energy =   -0.351670
                kinetic =    1.255442
    potential(screened) =   -1.607112
       potential(ionic) =   -5.425191

POLgen: Perturbative polarization orbital with L=  2

POLgen: Polarization orbital for state 5p
Split based on tail norm

   izeta = 1
                     rc =    8.179311
                 energy =    0.321588
                kinetic =    1.170622
    potential(screened) =   -0.849034
       potential(ionic) =   -4.052763
atom: Total number of Sankey-type orbitals: 13

atm_pop: Valence configuration (for local Pseudopot. screening):
 5s( 2.00)                                                            
 5p( 4.00)                                                            
 5d( 0.00)                                                            
Vna: chval, zval:    6.00000   6.00000

Vna:  Cut-off radius for the neutral-atom potential:   8.179311

atom: _________________________________________________________________________

prinput: Basis input 

PAO.BasisType split     

%block ChemicalSpeciesLabel
    1   26 Fe                      # Species index, atomic number, species label
    2   32 Ge                      # Species index, atomic number, species label
    3   52 Te                      # Species index, atomic number, species label
%endblock ChemicalSpeciesLabel

%block PAO.Basis                 # Define Basis set
# WARNING: This information might be incomplete!
Fe                    2                    # Species label, number of l-shells
 n=4   0   2 P   1                   # n, l, Nzeta, Polarization, NzetaPol
   8.951      5.732   
   1.000      1.000   
 n=3   2   2                         # n, l, Nzeta 
   5.568      2.873   
   1.000      1.000   
Ge                    2                    # Species label, number of l-shells
 n=4   0   2                         # n, l, Nzeta 
   6.615      4.053   
   1.000      1.000   
 n=4   1   2 P   1                   # n, l, Nzeta, Polarization, NzetaPol
   9.260      5.825   
   1.000      1.000   
Te                    2                    # Species label, number of l-shells
 n=5   0   2                         # n, l, Nzeta 
   6.204      3.828   
   1.000      1.000   
 n=5   1   2 P   1                   # n, l, Nzeta, Polarization, NzetaPol
   8.179      5.124   
   1.000      1.000   
%endblock PAO.Basis

prinput: ----------------------------------------------------------------------

Dumping basis to NetCDF file Fe.ion.nc
Dumping basis to NetCDF file Ge.ion.nc
Dumping basis to NetCDF file Te.ion.nc
coor:   Atomic-coordinates input format  =     Cartesian coordinates
coor:                                          (in Angstroms)

siesta: WARNING: XV file not found

siesta: Atomic coordinates (Bohr) and species
siesta:      4.47091   3.31940  23.97366  3        1
siesta:      4.47091   3.31940  14.23985  3        2
siesta:      0.63849   5.53200  19.10671  2        3
siesta:      0.63849   1.10673  21.45355  1        4
siesta:      0.63849   1.10673  16.75983  1        5
siesta:      4.47093   3.31937  19.10671  1        6

siesta: System type = slab      

initatomlists: Number of atoms, orbitals, and projectors:      6    84    96

siesta: ******************** Simulation parameters ****************************
siesta:
siesta: The following are some of the parameters of the simulation.
siesta: A complete list of the parameters used, including default values,
siesta: can be found in file out.fdf
siesta:
redata: Spin configuration                          = collinear
redata: Number of spin components                   = 2
redata: Time-Reversal Symmetry                      = T
redata: Spin spiral                                 = F
redata: Long output                                 =   F
redata: Number of Atomic Species                    =        3
redata: Charge density info will appear in .RHO file
redata: Write Mulliken charges (when)               = geometry+end
redata: Write Mulliken Pop.                         = Atomic and Orbital charges
redata: Write Hirshfeld charges (when)              = none
redata: Write Voronoi charges (when)                = none
redata: Write spin charge (when)                    = scf
redata: Matel table size (NRTAB)                    =     1024
redata: Mesh Cutoff                                 =  1200.0000 Ry
redata: Net charge of the system                    =     0.0000 |e|
redata: Min. number of SCF Iter                     =        0
redata: Max. number of SCF Iter                     =      300
redata: SCF convergence failure will abort job
redata: SCF mix quantity                            = Hamiltonian
redata: Mix DM or H after convergence               =   F
redata: Recompute H after scf cycle                 =   F
redata: Mix DM in first SCF step                    =   T
redata: Write Pulay info on disk                    =   F
redata: New DM Occupancy tolerance                  = 0.000000000001
redata: No kicks to SCF
redata: DM Mixing Weight for Kicks                  =     0.5000
redata: Require Harris convergence for SCF          =   F
redata: Harris energy tolerance for SCF             =     0.000100 eV
redata: Require DM convergence for SCF              =   T
redata: DM tolerance for SCF                        =     0.000100
redata: Require EDM convergence for SCF             =   F
redata: EDM tolerance for SCF                       =     0.001000 eV
redata: Require H convergence for SCF               =   T
redata: Hamiltonian tolerance for SCF               =     0.001000 eV
redata: Require (free) Energy convergence for SCF   =   F
redata: (free) Energy tolerance for SCF             =     0.000100 eV
redata: Antiferro initial spin density              =   F
redata: Using Saved Data (generic)                  =   F
redata: Use continuation files for DM               =   T
redata: Neglect nonoverlap interactions             =   F
redata: Method of Calculation                       = Diagonalization
redata: Electronic Temperature                      =     5.0000 K
redata: Fix the spin of the system                  =   F
redata: Max. number of TDED Iter                    =        1
redata: Number of TDED substeps                     =        3
redata: Dynamics option                             = CG coord. optimization
redata: Variable cell                               =   F
redata: Use continuation files for CG               =   T
redata: Max atomic displ per move                   =     0.0500 Ang
redata: Maximum number of optimization moves        =     1000
redata: Force tolerance                             =     0.0050 eV/Ang
mix.SCF: Pulay mixing                            = Pulay
mix.SCF:    Variant                              = stable
mix.SCF:    History steps                        = 4
mix.SCF:    Linear mixing weight                 =     0.100000
mix.SCF:    Mixing weight                        =     0.100000
mix.SCF:    SVD condition                        = 0.1000E-07
mix.SCF: Spin-component mixing                   all
redata: Save all siesta data in one NC              =   F
redata: ***********************************************************************

%block SCF.Mixers
  Pulay
%endblock SCF.Mixers

%block SCF.Mixer.Pulay
  # Mixing method
  method pulay
  variant stable

  # Mixing options
  weight 0.1000
  weight.linear 0.1000
  history 4
%endblock SCF.Mixer.Pulay

DM_history_depth set to one: no extrapolation allowed by default for geometry relaxation
Size of DM history Fstack: 1
Total number of electrons:    40.000000
Total ionic charge:    40.000000

* ProcessorY, Blocksize:    1  22


* Orbital distribution balance (max,min):    22    18

k-point displ. along   1 input, could be:     0.00    0.50
k-point displ. along   2 input, could be:     0.00    0.50
 Kpoints in:          480 . Kpoints trimmed:          466

siesta: k-grid: Number of k-points = 466
siesta: k-points from Monkhorst-Pack grid
siesta: k-cutoff (effective) =    15.000 Ang
siesta: k-point supercell and displacements
siesta: k-grid:    30     0     0      0.000
siesta: k-grid:     0    30     0      0.000
siesta: k-grid:     0     0     1      0.000

diag: Algorithm                                     = D&C
diag: Parallel over k                               =   T
diag: Use parallel 2D distribution                  =   T
diag: Parallel block-size                           = 22
diag: Parallel distribution                         =     2 x     2
diag: Used triangular part                          = Lower
diag: Absolute tolerance                            =  0.100E-15
diag: Orthogonalization factor                      =  0.100E-05
diag: Memory factor                                 =  1.0000

superc: Internal auxiliary supercell:     9 x     9 x     1  =      81
superc: Number of atoms, orbitals, and projectors:    486   6804   7776


ts: **************************************************************
ts: Save H and S matrices                           =    F
ts: Save DM and EDM matrices                        =    F
ts: Only save the overlap matrix S                  =    F
ts: **************************************************************

************************ Begin: TS CHECKS AND WARNINGS ************************
************************ End: TS CHECKS AND WARNINGS **************************


                     ====================================
                        Begin CG opt. move =      0
                     ====================================

outcoor: Atomic coordinates (Ang):                          
    2.36590530    1.75655160   12.68631553   3       1  Te
    2.36590532    1.75655152    7.53540528   3       2  Te
    0.33787193    2.92740936   10.11083463   2       3  Ge
    0.33787671    0.58565407   11.35272817   1       4  Fe
    0.33787674    0.58565409    8.86891758   1       5  Fe
    2.36591399    1.75653530   10.11083300   1       6  Fe

superc: Internal auxiliary supercell:     9 x     9 x     1  =      81
superc: Number of atoms, orbitals, and projectors:    486   6804   7776

outcell: Unit cell vectors (Ang):
        4.097694    0.000000    0.000000
       -2.048847    3.548707    0.000000
        0.000000    0.000000   30.000000

outcell: Cell vector modules (Ang)   :    4.097694    4.097694   30.000000
outcell: Cell angles (23,13,12) (deg):     90.0000     90.0000    120.0000
outcell: Cell volume (Ang**3)        :    436.2455
<dSpData1D:S at geom step 0
  <sparsity:sparsity for geom step 0
    nrows_g=84 nrows=22 sparsity=4.5011 nnzs=31760, refcount: 7>
  <dData1D:(new from dSpData1D) n=31760, refcount: 1>
refcount: 1>
new_DM -- step:     1
Initializing Density Matrix...

Attempting to read DM from file... Failed...
DM filled with atomic data:
<dSpData2D:DM initialized from atoms
  <sparsity:sparsity for geom step 0
    nrows_g=84 nrows=22 sparsity=4.5011 nnzs=31760, refcount: 8>
  <dData2D:DM n=31760 m=2, refcount: 1>
refcount: 1>
No. of atoms with KB's overlaping orbs in proc 0. Max # of overlaps:      39     568

InitMesh: MESH = 80 x 80 x 640 = 4096000
InitMesh: Mesh cutoff (required, used) =  1200.000  1257.823 Ry
New grid distribution [1]: sub = 2
New grid distribution [2]: sub = 2
New grid distribution [3]: sub = 2
Setting up quadratic distribution...

stepf: Fermi-Dirac step function

siesta: Program's energy decomposition (eV):
siesta: Ebs     =       308.358843
siesta: Eions   =      3068.636035
siesta: Ena     =       275.117436
siesta: Ekin    =      3842.071379
siesta: Enl     =     -2647.802910
siesta: Eso     =         0.000000
siesta: Edftu   =         0.000000
siesta: DEna    =       -17.578214
siesta: DUscf   =        28.798845
siesta: DUext   =         0.000000
siesta: Ex      =     -1413.822358
siesta: Ec      =       -90.281444
siesta: Exc     =     -1504.103801
siesta: EbV     =         0.000000
siesta: eta*DQ  =         0.000000
siesta: Emadel  =         0.000000
siesta: Emeta   =         0.000000
siesta: Emolmec =         0.000000
siesta: Ekinion =         0.000000
siesta: Eharris =     -3027.389219
siesta: Etot    =     -3092.133301
siesta: FreeEng =     -3092.133304

        iscf     Eharris(eV)        E_KS(eV)     FreeEng(eV)     dDmax    Ef(eV) dHmax(eV)
   scf:    1    -3027.389219    -3092.133301    -3092.133304  0.874583 -6.534464 37.590361
     spin moment: {S} , |S| = {        0.0        0.0    7.32868 }     7.32868
timer: Routine,Calls,Time,% = IterSCF        1      11.012  27.17
   scf:    2    -3087.683679    -3110.615832    -3110.615837  0.496301 -4.751638 16.278868
     spin moment: {S} , |S| = {        0.0        0.0    8.42516 }     8.42516
   scf:    3    -3106.386324    -3114.658644    -3114.658647  0.342948 -4.987600  8.910230
     spin moment: {S} , |S| = {        0.0        0.0    8.19898 }     8.19898
   scf:    4    -3116.493242    -3116.322061    -3116.322064  0.115642 -4.954309  1.316593
     spin moment: {S} , |S| = {        0.0        0.0    8.12513 }     8.12513
   scf:    5    -3117.048887    -3116.733731    -3116.733734  0.116049 -4.743910  1.950882
     spin moment: {S} , |S| = {        0.0        0.0    6.83778 }     6.83778
   scf:    6    -3116.737513    -3116.775344    -3116.775348  0.032727 -4.762530  1.041837
     spin moment: {S} , |S| = {        0.0        0.0    6.99918 }     6.99918
   scf:    7    -3116.755306    -3116.797920    -3116.797922  0.028975 -4.688431  0.895277
     spin moment: {S} , |S| = {        0.0        0.0    6.84667 }     6.84667
   scf:    8    -3116.824101    -3116.820419    -3116.820423  0.011784 -4.678994  0.431476
     spin moment: {S} , |S| = {        0.0        0.0    6.83774 }     6.83774
   scf:    9    -3116.831074    -3116.829051    -3116.829054  0.018950 -4.658989  0.593655
     spin moment: {S} , |S| = {        0.0        0.0    6.76069 }     6.76069
   scf:   10    -3116.844979    -3116.841455    -3116.841459  0.013076 -4.630696  0.370936
     spin moment: {S} , |S| = {        0.0        0.0    6.68804 }     6.68804
   scf:   11    -3116.865219    -3116.854703    -3116.854704  0.019134 -4.605312  0.319954
     spin moment: {S} , |S| = {        0.0        0.0    6.59053 }     6.59053
   scf:   12    -3116.874635    -3116.865087    -3116.865088  0.017380 -4.578882  0.266537
     spin moment: {S} , |S| = {        0.0        0.0    6.51778 }     6.51778
   scf:   13    -3116.860886    -3116.864240    -3116.864242  0.004463 -4.581984  0.204152
     spin moment: {S} , |S| = {        0.0        0.0    6.51556 }     6.51556
   scf:   14    -3116.865160    -3116.865304    -3116.865306  0.003503 -4.585717  0.121238
     spin moment: {S} , |S| = {        0.0        0.0    6.53643 }     6.53643
   scf:   15    -3116.869548    -3116.867477    -3116.867480  0.004927 -4.581963  0.168161
     spin moment: {S} , |S| = {        0.0        0.0    6.51341 }     6.51341
   scf:   16    -3116.868370    -3116.867933    -3116.867936  0.001002 -4.582406  0.156750
     spin moment: {S} , |S| = {        0.0        0.0    6.51558 }     6.51558
   scf:   17    -3116.873232    -3116.870608    -3116.870611  0.005558 -4.582471  0.111869
     spin moment: {S} , |S| = {        0.0        0.0    6.51447 }     6.51447
   scf:   18    -3116.873060    -3116.871882    -3116.871884  0.005103 -4.577575  0.116851
     spin moment: {S} , |S| = {        0.0        0.0    6.49644 }     6.49644
   scf:   19    -3116.872677    -3116.872287    -3116.872289  0.000960 -4.578426  0.091123
     spin moment: {S} , |S| = {        0.0        0.0    6.49432 }     6.49432
   scf:   20    -3116.873167    -3116.872728    -3116.872730  0.002021 -4.578665  0.094493
     spin moment: {S} , |S| = {        0.0        0.0    6.48920 }     6.48920
   scf:   21    -3116.872100    -3116.872416    -3116.872418  0.001498 -4.578352  0.102774
     spin moment: {S} , |S| = {        0.0        0.0    6.49403 }     6.49403
   scf:   22    -3116.872960    -3116.872692    -3116.872694  0.001265 -4.578855  0.078524
     spin moment: {S} , |S| = {        0.0        0.0    6.48887 }     6.48887
   scf:   23    -3116.872954    -3116.872833    -3116.872835  0.001241 -4.580037  0.102577
     spin moment: {S} , |S| = {        0.0        0.0    6.48401 }     6.48401
   scf:   24    -3116.873567    -3116.873196    -3116.873197  0.001786 -4.580047  0.074469
     spin moment: {S} , |S| = {        0.0        0.0    6.47780 }     6.47780
   scf:   25    -3116.873755    -3116.873472    -3116.873474  0.001035 -4.578521  0.066101
     spin moment: {S} , |S| = {        0.0        0.0    6.47564 }     6.47564
   scf:   26    -3116.874977    -3116.874180    -3116.874183  0.003510 -4.574608  0.067122
     spin moment: {S} , |S| = {        0.0        0.0    6.46436 }     6.46436
   scf:   27    -3116.874559    -3116.874367    -3116.874372  0.001193 -4.573337  0.068080
     spin moment: {S} , |S| = {        0.0        0.0    6.45630 }     6.45630
   scf:   28    -3116.875146    -3116.874755    -3116.874758  0.002484 -4.572567  0.074472
     spin moment: {S} , |S| = {        0.0        0.0    6.44898 }     6.44898
   scf:   29    -3116.872620    -3116.873543    -3116.873544  0.006687 -4.579756  0.085288
     spin moment: {S} , |S| = {        0.0        0.0    6.47724 }     6.47724
   scf:   30    -3116.873776    -3116.873671    -3116.873672  0.000585 -4.581546  0.091222
     spin moment: {S} , |S| = {        0.0        0.0    6.47752 }     6.47752
   scf:   31    -3116.874741    -3116.874230    -3116.874232  0.004058 -4.575206  0.088496
     spin moment: {S} , |S| = {        0.0        0.0    6.46672 }     6.46672
   scf:   32    -3116.873817    -3116.874023    -3116.874026  0.001036 -4.573812  0.067447
     spin moment: {S} , |S| = {        0.0        0.0    6.46470 }     6.46470
   scf:   33    -3116.873982    -3116.874009    -3116.874013  0.000531 -4.572569  0.048388
     spin moment: {S} , |S| = {        0.0        0.0    6.46210 }     6.46210
   scf:   34    -3116.873985    -3116.874000    -3116.874002  0.000318 -4.573336  0.054021
     spin moment: {S} , |S| = {        0.0        0.0    6.46415 }     6.46415
   scf:   35    -3116.874452    -3116.874226    -3116.874231  0.000900 -4.572700  0.067760
     spin moment: {S} , |S| = {        0.0        0.0    6.45781 }     6.45781
   scf:   36    -3116.874021    -3116.874123    -3116.874127  0.000408 -4.572474  0.066684
     spin moment: {S} , |S| = {        0.0        0.0    6.45797 }     6.45797
   scf:   37    -3116.875826    -3116.874895    -3116.874898  0.004084 -4.573724  0.072163
     spin moment: {S} , |S| = {        0.0        0.0    6.46020 }     6.46020
   scf:   38    -3116.874385    -3116.874667    -3116.874669  0.002037 -4.574140  0.038773
     spin moment: {S} , |S| = {        0.0        0.0    6.46494 }     6.46494
   scf:   39    -3116.874718    -3116.874749    -3116.874751  0.001022 -4.572907  0.045760
     spin moment: {S} , |S| = {        0.0        0.0    6.46379 }     6.46379
   scf:   40    -3116.874921    -3116.874859    -3116.874860  0.000689 -4.573194  0.062576
     spin moment: {S} , |S| = {        0.0        0.0    6.46377 }     6.46377
   scf:   41    -3116.874725    -3116.874792    -3116.874794  0.000481 -4.573090  0.054661
     spin moment: {S} , |S| = {        0.0        0.0    6.46383 }     6.46383
   scf:   42    -3116.874736    -3116.874764    -3116.874766  0.000172 -4.573011  0.056956
     spin moment: {S} , |S| = {        0.0        0.0    6.46335 }     6.46335
   scf:   43    -3116.874779    -3116.874773    -3116.874775  0.000373 -4.572797  0.050957
     spin moment: {S} , |S| = {        0.0        0.0    6.46284 }     6.46284
   scf:   44    -3116.874827    -3116.874804    -3116.874806  0.000310 -4.572958  0.043260
     spin moment: {S} , |S| = {        0.0        0.0    6.46357 }     6.46357
   scf:   45    -3116.875298    -3116.875046    -3116.875048  0.001265 -4.572903  0.038602
     spin moment: {S} , |S| = {        0.0        0.0    6.46452 }     6.46452
   scf:   46    -3116.875176    -3116.875111    -3116.875113  0.000650 -4.572513  0.036805
     spin moment: {S} , |S| = {        0.0        0.0    6.46285 }     6.46285
   scf:   47    -3116.875345    -3116.875227    -3116.875229  0.001131 -4.571511  0.032919
     spin moment: {S} , |S| = {        0.0        0.0    6.45747 }     6.45747
   scf:   48    -3116.875436    -3116.875329    -3116.875331  0.000909 -4.569976  0.035919
     spin moment: {S} , |S| = {        0.0        0.0    6.45138 }     6.45138
   scf:   49    -3116.875277    -3116.875303    -3116.875306  0.000264 -4.570969  0.045084
     spin moment: {S} , |S| = {        0.0        0.0    6.45320 }     6.45320
   scf:   50    -3116.875409    -3116.875362    -3116.875363  0.000498 -4.568344  0.044232
     spin moment: {S} , |S| = {        0.0        0.0    6.45085 }     6.45085
   scf:   51    -3116.875431    -3116.875399    -3116.875400  0.000214 -4.567668  0.031799
     spin moment: {S} , |S| = {        0.0        0.0    6.44952 }     6.44952
   scf:   52    -3116.875457    -3116.875428    -3116.875430  0.000265 -4.567460  0.027893
     spin moment: {S} , |S| = {        0.0        0.0    6.44819 }     6.44819
   scf:   53    -3116.875600    -3116.875512    -3116.875514  0.001024 -4.566868  0.036088
     spin moment: {S} , |S| = {        0.0        0.0    6.44399 }     6.44399
   scf:   54    -3116.875634    -3116.875571    -3116.875572  0.000742 -4.565619  0.033582
     spin moment: {S} , |S| = {        0.0        0.0    6.44222 }     6.44222
   scf:   55    -3116.875628    -3116.875605    -3116.875607  0.000261 -4.564822  0.022710
     spin moment: {S} , |S| = {        0.0        0.0    6.44184 }     6.44184
   scf:   56    -3116.875418    -3116.875513    -3116.875514  0.001068 -4.566902  0.025857
     spin moment: {S} , |S| = {        0.0        0.0    6.44448 }     6.44448
   scf:   57    -3116.875712    -3116.875609    -3116.875610  0.001154 -4.565573  0.028408
     spin moment: {S} , |S| = {        0.0        0.0    6.44215 }     6.44215
   scf:   58    -3116.875694    -3116.875652    -3116.875653  0.000399 -4.565296  0.021358
     spin moment: {S} , |S| = {        0.0        0.0    6.44199 }     6.44199
   scf:   59    -3116.875690    -3116.875672    -3116.875674  0.000203 -4.564982  0.020587
     spin moment: {S} , |S| = {        0.0        0.0    6.44135 }     6.44135
   scf:   60    -3116.875915    -3116.875778    -3116.875780  0.001451 -4.564470  0.016736
     spin moment: {S} , |S| = {        0.0        0.0    6.43796 }     6.43796
   scf:   61    -3116.875817    -3116.875797    -3116.875798  0.000403 -4.564211  0.016118
     spin moment: {S} , |S| = {        0.0        0.0    6.43760 }     6.43760
   scf:   62    -3116.875785    -3116.875794    -3116.875795  0.000246 -4.564156  0.014257
     spin moment: {S} , |S| = {        0.0        0.0    6.43773 }     6.43773
   scf:   63    -3116.875866    -3116.875827    -3116.875830  0.001123 -4.563805  0.011248
     spin moment: {S} , |S| = {        0.0        0.0    6.43569 }     6.43569
   scf:   64    -3116.875829    -3116.875828    -3116.875831  0.000063 -4.563826  0.010465
     spin moment: {S} , |S| = {        0.0        0.0    6.43563 }     6.43563
   scf:   65    -3116.875917    -3116.875860    -3116.875863  0.001552 -4.563281  0.008132
     spin moment: {S} , |S| = {        0.0        0.0    6.43008 }     6.43008
   scf:   66    -3116.875814    -3116.875820    -3116.875822  0.001858 -4.563872  0.011099
     spin moment: {S} , |S| = {        0.0        0.0    6.43637 }     6.43637
   scf:   67    -3116.875910    -3116.875856    -3116.875858  0.001525 -4.563232  0.005252
     spin moment: {S} , |S| = {        0.0        0.0    6.43079 }     6.43079
   scf:   68    -3116.875867    -3116.875861    -3116.875864  0.000316 -4.563103  0.005213
     spin moment: {S} , |S| = {        0.0        0.0    6.42988 }     6.42988
   scf:   69    -3116.875865    -3116.875863    -3116.875866  0.000143 -4.562951  0.003661
     spin moment: {S} , |S| = {        0.0        0.0    6.42934 }     6.42934
   scf:   70    -3116.875866    -3116.875865    -3116.875867  0.000148 -4.562803  0.002596
     spin moment: {S} , |S| = {        0.0        0.0    6.42883 }     6.42883
   scf:   71    -3116.875873    -3116.875868    -3116.875870  0.000774 -4.562465  0.003432
     spin moment: {S} , |S| = {        0.0        0.0    6.42698 }     6.42698
   scf:   72    -3116.875870    -3116.875868    -3116.875871  0.000377 -4.562297  0.001934
     spin moment: {S} , |S| = {        0.0        0.0    6.42592 }     6.42592
   scf:   73    -3116.875868    -3116.875868    -3116.875870  0.000409 -4.562393  0.002169
     spin moment: {S} , |S| = {        0.0        0.0    6.42691 }     6.42691
   scf:   74    -3116.875868    -3116.875868    -3116.875871  0.000096 -4.562311  0.001911
     spin moment: {S} , |S| = {        0.0        0.0    6.42655 }     6.42655
   scf:   75    -3116.875868    -3116.875868    -3116.875871  0.000041 -4.562262  0.002001
     spin moment: {S} , |S| = {        0.0        0.0    6.42639 }     6.42639
   scf:   76    -3116.875869    -3116.875868    -3116.875871  0.000160 -4.562000  0.001030
     spin moment: {S} , |S| = {        0.0        0.0    6.42577 }     6.42577
   scf:   77    -3116.875869    -3116.875869    -3116.875871  0.000099 -4.561967  0.001516
     spin moment: {S} , |S| = {        0.0        0.0    6.42552 }     6.42552
   scf:   78    -3116.875868    -3116.875869    -3116.875871  0.000040 -4.561997  0.001407
     spin moment: {S} , |S| = {        0.0        0.0    6.42564 }     6.42564
   scf:   79    -3116.875868    -3116.875868    -3116.875871  0.000012 -4.562001  0.001553
     spin moment: {S} , |S| = {        0.0        0.0    6.42566 }     6.42566
   scf:   80    -3116.875870    -3116.875869    -3116.875871  0.000145 -4.561956  0.001170
     spin moment: {S} , |S| = {        0.0        0.0    6.42535 }     6.42535
   scf:   81    -3116.875869    -3116.875869    -3116.875871  0.000005 -4.561960  0.001231
     spin moment: {S} , |S| = {        0.0        0.0    6.42537 }     6.42537
   scf:   82    -3116.875870    -3116.875869    -3116.875872  0.000097 -4.561929  0.000896
     spin moment: {S} , |S| = {        0.0        0.0    6.42515 }     6.42515

SCF Convergence by DM+H criterion
max |DM_out - DM_in|         :     0.0000971123
max |H_out - H_in|      (eV) :     0.0008959430
SCF cycle converged after 82 iterations

Using DM_out to compute the final energy and forces
No. of atoms with KB's overlaping orbs in proc 0. Max # of overlaps:      39     568

siesta: E_KS(eV) =            -3116.8759

siesta: E_KS - E_eggbox =     -3116.8759

siesta: Atomic forces (eV/Ang):
     1    0.091573    0.043792    0.280404
     2    0.091594    0.043803   -0.280948
     3   -0.196910    0.200213    0.000047
     4   -0.122723   -0.115779    0.003299
     5   -0.122519   -0.115784   -0.004146
     6    0.259067   -0.056287    0.000405
----------------------------------------
   Tot    0.000083   -0.000042   -0.000938
----------------------------------------
   Max    0.280948
   Res    0.146102    sqrt( Sum f_i^2 / 3N )
----------------------------------------
   Max    0.280948    constrained

Stress tensor Voigt[x,y,z,yz,xz,xy] (kbar):       -1.46        0.04       -5.37       -0.00        0.00        0.02
(Free)E + p*V (eV/cell)    -3116.2601
Target enthalpy (eV/cell)    -3116.8759

mulliken: Atomic and Orbital Populations:

mulliken: Spin UP 

Species: Fe                  
Atom  Qatom  Qorb
               4s      4s      3dxy    3dyz    3dz2    3dxz    3dx2-y2 3dxy    
               3dyz    3dz2    3dxz    3dx2-y2 4Ppy    4Ppz    4Ppx    
   4  5.391   0.049   0.242   1.050   1.003   1.070   1.002   1.049  -0.103
             -0.097  -0.108  -0.098  -0.103   0.145   0.147   0.146
   5  5.391   0.049   0.242   1.050   1.003   1.070   1.002   1.049  -0.103
             -0.097  -0.108  -0.098  -0.103   0.145   0.147   0.146
   6  4.883   0.001   0.288   0.956   1.074   0.880   1.072   0.957  -0.115
             -0.170  -0.120  -0.170  -0.115   0.110   0.128   0.108

Species: Ge                  
Atom  Qatom  Qorb
               4s      4s      4py     4pz     4px     4py     4pz     4px     
               4Pdxy   4Pdyz   4Pdz2   4Pdxz   4Pdx2-y2
   3  1.573   0.857  -0.059  -0.342  -0.160  -0.353   0.550   0.289   0.557
              0.057   0.045   0.032   0.045   0.056

Species: Te                  
Atom  Qatom  Qorb
               5s      5s      5py     5pz     5px     5py     5pz     5px     
               5Pdxy   5Pdyz   5Pdz2   5Pdxz   5Pdx2-y2
   1  2.987   0.940   0.008   0.567   0.599   0.563   0.075   0.063   0.078
              0.018   0.020   0.018   0.020   0.018
   2  2.987   0.940   0.008   0.567   0.599   0.563   0.075   0.063   0.078
              0.018   0.020   0.018   0.020   0.018

mulliken: Qtot =       23.213

mulliken: Spin DOWN 

Species: Fe                  
Atom  Qatom  Qorb
               4s      4s      3dxy    3dyz    3dz2    3dxz    3dx2-y2 3dxy    
               3dyz    3dz2    3dxz    3dx2-y2 4Ppy    4Ppz    4Ppx    
   4  2.714   0.063   0.221   0.477   0.479   0.699   0.483   0.490  -0.102
             -0.100  -0.144  -0.101  -0.104   0.112   0.126   0.114
   5  2.714   0.063   0.221   0.477   0.479   0.699   0.483   0.490  -0.102
             -0.100  -0.144  -0.101  -0.104   0.112   0.126   0.114
   6  3.362  -0.029   0.307   0.665   0.811   0.547   0.808   0.655  -0.133
             -0.190  -0.110  -0.189  -0.131   0.118   0.118   0.115

Species: Ge                  
Atom  Qatom  Qorb
               4s      4s      4py     4pz     4px     4py     4pz     4px     
               4Pdxy   4Pdyz   4Pdz2   4Pdxz   4Pdx2-y2
   3  1.795   0.896  -0.069  -0.350  -0.132  -0.359   0.608   0.353   0.614
              0.055   0.043   0.035   0.044   0.055

Species: Te                  
Atom  Qatom  Qorb
               5s      5s      5py     5pz     5px     5py     5pz     5px     
               5Pdxy   5Pdyz   5Pdz2   5Pdxz   5Pdx2-y2
   1  3.101   0.944   0.007   0.621   0.590   0.617   0.076   0.065   0.078
              0.020   0.026   0.011   0.026   0.020
   2  3.101   0.944   0.007   0.621   0.590   0.617   0.076   0.065   0.078
              0.020   0.026   0.011   0.026   0.020

mulliken: Qtot =       16.787

Mulliken Atomic Populations:
Atom #   charge [q] valence [e]      Sz [e]  Species
     1    -0.088265    6.088265   -0.114661  Te
     2    -0.088237    6.088237   -0.114661  Te
     3     0.631630    3.368370   -0.221557  Ge
     4    -0.104795    8.104795    2.677497  Fe
     5    -0.104834    8.104834    2.677445  Fe
     6    -0.245499    8.245499    1.521090  Fe
-------------------------------------------
 Total    -0.000000                6.425153

cgvc: WARNING: CG file not found

                     ====================================
                        Begin CG opt. move =      1
                     ====================================

outcoor: Atomic coordinates (Ang):                          
    2.37329192    1.76008403   12.70893398   3       1  Te
    2.37329362    1.76008481    7.51274300   3       2  Te
    0.32198842    2.94355928   10.11083845   2       3  Ge
    0.32797744    0.57631492   11.35299426   1       4  Fe
    0.32799392    0.57631454    8.86858315   1       5  Fe
    2.38681133    1.75199499   10.11086568   1       6  Fe

superc: Internal auxiliary supercell:     9 x     9 x     1  =      81
superc: Number of atoms, orbitals, and projectors:    486   6804   7776

outcell: Unit cell vectors (Ang):
        4.097694    0.000000    0.000000
       -2.048847    3.548707    0.000000
        0.000000    0.000000   30.000000

outcell: Cell vector modules (Ang)   :    4.097694    4.097694   30.000000
outcell: Cell angles (23,13,12) (deg):     90.0000     90.0000    120.0000
outcell: Cell volume (Ang**3)        :    436.2455
<dSpData1D:S at geom step 1
  <sparsity:sparsity for geom step 1
    nrows_g=84 nrows=22 sparsity=4.5011 nnzs=31760, refcount: 7>
  <dData1D:(new from dSpData1D) n=31760, refcount: 1>
refcount: 1>
new_DM -- step:     2
Re-using DM from previous geometries...
Number of DMs in history: 1
 DM extrapolation coefficients: 
1   1.00000
New DM after history re-use:
<dSpData2D:SpM extrapolated using coords
  <sparsity:sparsity for geom step 1
    nrows_g=84 nrows=22 sparsity=4.5011 nnzs=31760, refcount: 9>
  <dData2D:(temp array for extrapolation) n=31760 m=2, refcount: 1>
refcount: 1>
No. of atoms with KB's overlaping orbs in proc 0. Max # of overlaps:      39     568

InitMesh: MESH = 80 x 80 x 640 = 4096000
InitMesh: Mesh cutoff (required, used) =  1200.000  1257.823 Ry
New grid distribution [1]: sub = 2
New grid distribution [2]: sub = 2
New grid distribution [3]: sub = 2
Setting up quadratic distribution...

        iscf     Eharris(eV)        E_KS(eV)     FreeEng(eV)     dDmax    Ef(eV) dHmax(eV)
   scf:    1    -3116.980786    -3116.867682    -3116.867684  0.024348 -4.530103  0.954481
     spin moment: {S} , |S| = {        0.0        0.0    6.47208 }     6.47208
   scf:    2    -3107.098840    -3113.696378    -3113.696381  0.119891 -5.040038 13.881413
     spin moment: {S} , |S| = {        0.0        0.0    6.19807 }     6.19807
   scf:    3    -3116.961911    -3116.885678    -3116.885681  0.113853 -4.573304  0.329387
     spin moment: {S} , |S| = {        0.0        0.0    6.45243 }     6.45243
   scf:    4    -3116.888101    -3116.888360    -3116.888363  0.004023 -4.574381  0.061365
     spin moment: {S} , |S| = {        0.0        0.0    6.44920 }     6.44920
   scf:    5    -3116.888511    -3116.888533    -3116.888537  0.001059 -4.572660  0.063126
     spin moment: {S} , |S| = {        0.0        0.0    6.44881 }     6.44881
   scf:    6    -3116.888665    -3116.888681    -3116.888685  0.001024 -4.572093  0.030460
     spin moment: {S} , |S| = {        0.0        0.0    6.44911 }     6.44911
   scf:    7    -3116.889341    -3116.889062    -3116.889066  0.001488 -4.567470  0.025418
     spin moment: {S} , |S| = {        0.0        0.0    6.44913 }     6.44913
   scf:    8    -3116.889072    -3116.889067    -3116.889071  0.000140 -4.568341  0.022331
     spin moment: {S} , |S| = {        0.0        0.0    6.44911 }     6.44911
   scf:    9    -3116.889131    -3116.889114    -3116.889117  0.000960 -4.568769  0.025592
     spin moment: {S} , |S| = {        0.0        0.0    6.45011 }     6.45011
   scf:   10    -3116.889153    -3116.889139    -3116.889143  0.000401 -4.568633  0.011909
     spin moment: {S} , |S| = {        0.0        0.0    6.45066 }     6.45066
   scf:   11    -3116.889155    -3116.889148    -3116.889153  0.000422 -4.569337  0.013172
     spin moment: {S} , |S| = {        0.0        0.0    6.45169 }     6.45169
   scf:   12    -3116.889140    -3116.889147    -3116.889151  0.000241 -4.569107  0.015210
     spin moment: {S} , |S| = {        0.0        0.0    6.45131 }     6.45131
   scf:   13    -3116.889168    -3116.889158    -3116.889163  0.000499 -4.569762  0.007234
     spin moment: {S} , |S| = {        0.0        0.0    6.45300 }     6.45300
   scf:   14    -3116.889207    -3116.889181    -3116.889185  0.001245 -4.571190  0.012353
     spin moment: {S} , |S| = {        0.0        0.0    6.45655 }     6.45655
   scf:   15    -3116.889210    -3116.889196    -3116.889200  0.000673 -4.571825  0.009400
     spin moment: {S} , |S| = {        0.0        0.0    6.45834 }     6.45834
   scf:   16    -3116.889227    -3116.889210    -3116.889212  0.000838 -4.573436  0.010163
     spin moment: {S} , |S| = {        0.0        0.0    6.46031 }     6.46031
   scf:   17    -3116.889208    -3116.889209    -3116.889212  0.000230 -4.572993  0.006179
     spin moment: {S} , |S| = {        0.0        0.0    6.45997 }     6.45997
   scf:   18    -3116.889213    -3116.889211    -3116.889213  0.000108 -4.572902  0.007586
     spin moment: {S} , |S| = {        0.0        0.0    6.46034 }     6.46034
   scf:   19    -3116.889213    -3116.889212    -3116.889215  0.000069 -4.572964  0.007016
     spin moment: {S} , |S| = {        0.0        0.0    6.46052 }     6.46052
   scf:   20    -3116.889207    -3116.889210    -3116.889212  0.000160 -4.572758  0.005733
     spin moment: {S} , |S| = {        0.0        0.0    6.46014 }     6.46014
   scf:   21    -3116.889209    -3116.889209    -3116.889212  0.000027 -4.572705  0.005894
     spin moment: {S} , |S| = {        0.0        0.0    6.46007 }     6.46007
   scf:   22    -3116.889221    -3116.889215    -3116.889217  0.000328 -4.573174  0.005629
     spin moment: {S} , |S| = {        0.0        0.0    6.46087 }     6.46087
   scf:   23    -3116.889215    -3116.889215    -3116.889217  0.000021 -4.573197  0.005297
     spin moment: {S} , |S| = {        0.0        0.0    6.46091 }     6.46091
   scf:   24    -3116.889214    -3116.889215    -3116.889217  0.000022 -4.573183  0.005483
     spin moment: {S} , |S| = {        0.0        0.0    6.46087 }     6.46087
   scf:   25    -3116.889219    -3116.889217    -3116.889219  0.000158 -4.573311  0.004512
     spin moment: {S} , |S| = {        0.0        0.0    6.46122 }     6.46122
   scf:   26    -3116.889223    -3116.889220    -3116.889222  0.000292 -4.573483  0.002856
     spin moment: {S} , |S| = {        0.0        0.0    6.46189 }     6.46189
   scf:   27    -3116.889223    -3116.889221    -3116.889223  0.000160 -4.573447  0.002342
     spin moment: {S} , |S| = {        0.0        0.0    6.46227 }     6.46227
   scf:   28    -3116.889222    -3116.889221    -3116.889223  0.000056 -4.573429  0.001751
     spin moment: {S} , |S| = {        0.0        0.0    6.46242 }     6.46242
   scf:   29    -3116.889222    -3116.889222    -3116.889223  0.000044 -4.573368  0.001620
     spin moment: {S} , |S| = {        0.0        0.0    6.46240 }     6.46240
   scf:   30    -3116.889223    -3116.889222    -3116.889224  0.000083 -4.573342  0.002551
     spin moment: {S} , |S| = {        0.0        0.0    6.46259 }     6.46259
   scf:   31    -3116.889224    -3116.889223    -3116.889225  0.000095 -4.573269  0.001683
     spin moment: {S} , |S| = {        0.0        0.0    6.46284 }     6.46284
   scf:   32    -3116.889224    -3116.889223    -3116.889225  0.000151 -4.573161  0.000612
     spin moment: {S} , |S| = {        0.0        0.0    6.46324 }     6.46324
   scf:   33    -3116.889223    -3116.889223    -3116.889225  0.000022 -4.573174  0.001046
     spin moment: {S} , |S| = {        0.0        0.0    6.46319 }     6.46319
   scf:   34    -3116.889224    -3116.889224    -3116.889225  0.000058 -4.573141  0.000553
     spin moment: {S} , |S| = {        0.0        0.0    6.46333 }     6.46333

SCF Convergence by DM+H criterion
max |DM_out - DM_in|         :     0.0000576166
max |H_out - H_in|      (eV) :     0.0005525906
SCF cycle converged after 34 iterations

Using DM_out to compute the final energy and forces
No. of atoms with KB's overlaping orbs in proc 0. Max # of overlaps:      39     568

siesta: E_KS(eV) =            -3116.8892

siesta: Atomic forces (eV/Ang):
     1    0.007417   -0.000365    0.074356
     2    0.007471   -0.000374   -0.074341
     3    0.153601   -0.076032   -0.000061
     4   -0.006348   -0.006167    0.054260
     5   -0.006577   -0.006110   -0.055088
     6   -0.155663    0.089164   -0.000529
----------------------------------------
   Tot   -0.000099    0.000116   -0.001402
----------------------------------------
   Max    0.155663
   Res    0.066190    sqrt( Sum f_i^2 / 3N )
----------------------------------------
   Max    0.155663    constrained

Stress tensor Voigt[x,y,z,yz,xz,xy] (kbar):        0.46        0.06       -1.94        0.00        0.00       -0.44
(Free)E + p*V (eV/cell)    -3116.7602
Target enthalpy (eV/cell)    -3116.8892

mulliken: Atomic and Orbital Populations:

mulliken: Spin UP 

Species: Fe                  
Atom  Qatom  Qorb
               4s      4s      3dxy    3dyz    3dz2    3dxz    3dx2-y2 3dxy    
               3dyz    3dz2    3dxz    3dx2-y2 4Ppy    4Ppz    4Ppx    
   4  5.391   0.045   0.244   1.047   1.002   1.068   1.001   1.047  -0.101
             -0.096  -0.106  -0.096  -0.101   0.145   0.146   0.145
   5  5.391   0.045   0.244   1.047   1.002   1.068   1.001   1.047  -0.101
             -0.096  -0.106  -0.096  -0.101   0.145   0.146   0.145
   6  4.899   0.003   0.287   0.955   1.071   0.888   1.071   0.955  -0.114
             -0.166  -0.119  -0.166  -0.114   0.109   0.130   0.109

Species: Ge                  
Atom  Qatom  Qorb
               4s      4s      4py     4pz     4px     4py     4pz     4px     
               4Pdxy   4Pdyz   4Pdz2   4Pdxz   4Pdx2-y2
   3  1.575   0.854  -0.057  -0.342  -0.155  -0.340   0.550   0.284   0.547
              0.056   0.045   0.032   0.045   0.056

Species: Te                  
Atom  Qatom  Qorb
               5s      5s      5py     5pz     5px     5py     5pz     5px     
               5Pdxy   5Pdyz   5Pdz2   5Pdxz   5Pdx2-y2
   1  2.988   0.941   0.007   0.570   0.601   0.570   0.073   0.060   0.073
              0.018   0.020   0.018   0.020   0.018
   2  2.988   0.941   0.007   0.570   0.601   0.570   0.073   0.060   0.073
              0.018   0.020   0.018   0.020   0.018

mulliken: Qtot =       23.232

mulliken: Spin DOWN 

Species: Fe                  
Atom  Qatom  Qorb
               4s      4s      3dxy    3dyz    3dz2    3dxz    3dx2-y2 3dxy    
               3dyz    3dz2    3dxz    3dx2-y2 4Ppy    4Ppz    4Ppx    
   4  2.704   0.057   0.225   0.484   0.477   0.699   0.478   0.479  -0.103
             -0.099  -0.144  -0.099  -0.102   0.113   0.125   0.113
   5  2.704   0.057   0.225   0.484   0.477   0.699   0.478   0.479  -0.103
             -0.099  -0.144  -0.099  -0.102   0.113   0.125   0.113
   6  3.345  -0.026   0.305   0.659   0.802   0.530   0.804   0.660  -0.132
             -0.186  -0.108  -0.187  -0.132   0.117   0.119   0.118

Species: Ge                  
Atom  Qatom  Qorb
               4s      4s      4py     4pz     4px     4py     4pz     4px     
               4Pdxy   4Pdyz   4Pdz2   4Pdxz   4Pdx2-y2
   3  1.799   0.892  -0.066  -0.348  -0.126  -0.346   0.608   0.348   0.605
              0.055   0.044   0.035   0.043   0.055

Species: Te                  
Atom  Qatom  Qorb
               5s      5s      5py     5pz     5px     5py     5pz     5px     
               5Pdxy   5Pdyz   5Pdz2   5Pdxz   5Pdx2-y2
   1  3.108   0.945   0.006   0.627   0.593   0.627   0.073   0.063   0.073
              0.020   0.025   0.011   0.025   0.020
   2  3.108   0.945   0.006   0.627   0.593   0.627   0.073   0.063   0.073
              0.020   0.025   0.011   0.025   0.020

mulliken: Qtot =       16.768

Mulliken Atomic Populations:
Atom #   charge [q] valence [e]      Sz [e]  Species
     1    -0.095448    6.095448   -0.120405  Te
     2    -0.095435    6.095435   -0.120368  Te
     3     0.626161    3.373839   -0.224346  Ge
     4    -0.095755    8.095755    2.686973  Fe
     5    -0.095783    8.095783    2.686967  Fe
     6    -0.243741    8.243741    1.554510  Fe
-------------------------------------------
 Total     0.000000                6.463331

                     ====================================
                        Begin CG opt. move =      2
                     ====================================

outcoor: Atomic coordinates (Ang):                          
    2.37252779    1.75971860   12.70659412   3       1  Te
    2.37252931    1.75971929    7.51508739   3       2  Te
    0.32363155    2.94188858   10.11083805   2       3  Ge
    0.32900151    0.57728105   11.35296673   1       4  Fe
    0.32901629    0.57728071    8.86861775   1       5  Fe
    2.38464952    1.75246468   10.11086230   1       6  Fe

superc: Internal auxiliary supercell:     9 x     9 x     1  =      81
superc: Number of atoms, orbitals, and projectors:    486   6804   7776

outcell: Unit cell vectors (Ang):
        4.097694    0.000000    0.000000
       -2.048847    3.548707    0.000000
        0.000000    0.000000   30.000000

outcell: Cell vector modules (Ang)   :    4.097694    4.097694   30.000000
outcell: Cell angles (23,13,12) (deg):     90.0000     90.0000    120.0000
outcell: Cell volume (Ang**3)        :    436.2455
<dSpData1D:S at geom step 2
  <sparsity:sparsity for geom step 2
    nrows_g=84 nrows=22 sparsity=4.5011 nnzs=31760, refcount: 7>
  <dData1D:(new from dSpData1D) n=31760, refcount: 1>
refcount: 1>
new_DM -- step:     3
Re-using DM from previous geometries...
Number of DMs in history: 1
 DM extrapolation coefficients: 
1   1.00000
New DM after history re-use:
<dSpData2D:SpM extrapolated using coords
  <sparsity:sparsity for geom step 2
    nrows_g=84 nrows=22 sparsity=4.5011 nnzs=31760, refcount: 9>
  <dData2D:(temp array for extrapolation) n=31760 m=2, refcount: 1>
refcount: 1>
No. of atoms with KB's overlaping orbs in proc 0. Max # of overlaps:      39     568

InitMesh: MESH = 80 x 80 x 640 = 4096000
InitMesh: Mesh cutoff (required, used) =  1200.000  1257.823 Ry
New grid distribution [1]: sub = 2
New grid distribution [2]: sub = 2
New grid distribution [3]: sub = 2
Setting up quadratic distribution...

        iscf     Eharris(eV)        E_KS(eV)     FreeEng(eV)     dDmax    Ef(eV) dHmax(eV)
   scf:    1    -3116.873208    -3116.889093    -3116.889095  0.002712 -4.577719  0.119526
     spin moment: {S} , |S| = {        0.0        0.0    6.45437 }     6.45437
   scf:    2    -3116.724190    -3116.835463    -3116.835466  0.015379 -4.513890  1.801970
     spin moment: {S} , |S| = {        0.0        0.0    6.49453 }     6.49453
   scf:    3    -3116.890513    -3116.889346    -3116.889347  0.014434 -4.572663  0.041637
     spin moment: {S} , |S| = {        0.0        0.0    6.45956 }     6.45956
   scf:    4    -3116.889407    -3116.889408    -3116.889410  0.000587 -4.572708  0.009707
     spin moment: {S} , |S| = {        0.0        0.0    6.45930 }     6.45930
   scf:    5    -3116.889409    -3116.889410    -3116.889412  0.000114 -4.572859  0.007364
     spin moment: {S} , |S| = {        0.0        0.0    6.45917 }     6.45917
   scf:    6    -3116.889414    -3116.889412    -3116.889414  0.000076 -4.573102  0.003508
     spin moment: {S} , |S| = {        0.0        0.0    6.45901 }     6.45901
   scf:    7    -3116.889416    -3116.889414    -3116.889417  0.000066 -4.573254  0.002306
     spin moment: {S} , |S| = {        0.0        0.0    6.45890 }     6.45890
   scf:    8    -3116.889418    -3116.889416    -3116.889419  0.000160 -4.573434  0.002958
     spin moment: {S} , |S| = {        0.0        0.0    6.45853 }     6.45853
   scf:    9    -3116.889416    -3116.889416    -3116.889419  0.000038 -4.573408  0.002592
     spin moment: {S} , |S| = {        0.0        0.0    6.45856 }     6.45856
   scf:   10    -3116.889416    -3116.889416    -3116.889419  0.000013 -4.573391  0.001886
     spin moment: {S} , |S| = {        0.0        0.0    6.45855 }     6.45855
   scf:   11    -3116.889417    -3116.889416    -3116.889419  0.000020 -4.573352  0.001736
     spin moment: {S} , |S| = {        0.0        0.0    6.45849 }     6.45849
   scf:   12    -3116.889417    -3116.889417    -3116.889420  0.000099 -4.573161  0.001154
     spin moment: {S} , |S| = {        0.0        0.0    6.45816 }     6.45816
   scf:   13    -3116.889418    -3116.889417    -3116.889420  0.000189 -4.572857  0.001172
     spin moment: {S} , |S| = {        0.0        0.0    6.45752 }     6.45752
   scf:   14    -3116.889417    -3116.889417    -3116.889420  0.000109 -4.572724  0.000983
     spin moment: {S} , |S| = {        0.0        0.0    6.45714 }     6.45714
   scf:   15    -3116.889417    -3116.889417    -3116.889420  0.000015 -4.572712  0.000762
     spin moment: {S} , |S| = {        0.0        0.0    6.45710 }     6.45710

SCF Convergence by DM+H criterion
max |DM_out - DM_in|         :     0.0000149805
max |H_out - H_in|      (eV) :     0.0007617794
SCF cycle converged after 15 iterations

Using DM_out to compute the final energy and forces
No. of atoms with KB's overlaping orbs in proc 0. Max # of overlaps:      39     568

siesta: E_KS(eV) =            -3116.8894

siesta: Atomic forces (eV/Ang):
     1    0.015812    0.003708    0.093851
     2    0.015873    0.003699   -0.093856
     3    0.117871   -0.048531   -0.000040
     4   -0.017235   -0.016292    0.048040
     5   -0.017449   -0.016211   -0.048859
     6   -0.114909    0.073799   -0.000470
----------------------------------------
   Tot   -0.000038    0.000172   -0.001334
----------------------------------------
   Max    0.117871
   Res    0.057189    sqrt( Sum f_i^2 / 3N )
----------------------------------------
   Max    0.117871    constrained

Stress tensor Voigt[x,y,z,yz,xz,xy] (kbar):        0.30        0.09       -2.26        0.00        0.00       -0.39
(Free)E + p*V (eV/cell)    -3116.7203
Target enthalpy (eV/cell)    -3116.8894

mulliken: Atomic and Orbital Populations:

mulliken: Spin UP 

Species: Fe                  
Atom  Qatom  Qorb
               4s      4s      3dxy    3dyz    3dz2    3dxz    3dx2-y2 3dxy    
               3dyz    3dz2    3dxz    3dx2-y2 4Ppy    4Ppz    4Ppx    
   4  5.391   0.046   0.244   1.048   1.002   1.068   1.001   1.048  -0.101
             -0.096  -0.106  -0.097  -0.101   0.145   0.147   0.145
   5  5.391   0.046   0.244   1.048   1.002   1.068   1.001   1.048  -0.101
             -0.096  -0.106  -0.097  -0.101   0.145   0.147   0.145
   6  4.898   0.003   0.287   0.955   1.071   0.887   1.071   0.955  -0.114
             -0.166  -0.119  -0.166  -0.114   0.109   0.130   0.109

Species: Ge                  
Atom  Qatom  Qorb
               4s      4s      4py     4pz     4px     4py     4pz     4px     
               4Pdxy   4Pdyz   4Pdz2   4Pdxz   4Pdx2-y2
   3  1.575   0.854  -0.057  -0.342  -0.155  -0.341   0.550   0.285   0.548
              0.056   0.045   0.032   0.045   0.056

Species: Te                  
Atom  Qatom  Qorb
               5s      5s      5py     5pz     5px     5py     5pz     5px     
               5Pdxy   5Pdyz   5Pdz2   5Pdxz   5Pdx2-y2
   1  2.987   0.941   0.008   0.570   0.601   0.569   0.073   0.060   0.073
              0.018   0.020   0.018   0.020   0.018
   2  2.987   0.941   0.008   0.570   0.601   0.569   0.073   0.060   0.073
              0.018   0.020   0.018   0.020   0.018

mulliken: Qtot =       23.229

mulliken: Spin DOWN 

Species: Fe                  
Atom  Qatom  Qorb
               4s      4s      3dxy    3dyz    3dz2    3dxz    3dx2-y2 3dxy    
               3dyz    3dz2    3dxz    3dx2-y2 4Ppy    4Ppz    4Ppx    
   4  2.706   0.058   0.225   0.484   0.477   0.699   0.479   0.481  -0.103
             -0.099  -0.144  -0.100  -0.102   0.113   0.125   0.113
   5  2.706   0.058   0.225   0.484   0.477   0.699   0.479   0.481  -0.103
             -0.099  -0.144  -0.100  -0.102   0.113   0.125   0.113
   6  3.346  -0.026   0.305   0.660   0.803   0.532   0.804   0.660  -0.132
             -0.187  -0.108  -0.187  -0.132   0.117   0.119   0.117

Species: Ge                  
Atom  Qatom  Qorb
               4s      4s      4py     4pz     4px     4py     4pz     4px     
               4Pdxy   4Pdyz   4Pdz2   4Pdxz   4Pdx2-y2
   3  1.799   0.892  -0.066  -0.348  -0.127  -0.347   0.608   0.349   0.606
              0.055   0.044   0.035   0.043   0.055

Species: Te                  
Atom  Qatom  Qorb
               5s      5s      5py     5pz     5px     5py     5pz     5px     
               5Pdxy   5Pdyz   5Pdz2   5Pdxz   5Pdx2-y2
   1  3.108   0.945   0.006   0.626   0.593   0.626   0.073   0.063   0.073
              0.020   0.025   0.011   0.025   0.020
   2  3.107   0.945   0.006   0.626   0.593   0.626   0.073   0.063   0.073
              0.020   0.025   0.011   0.025   0.020

mulliken: Qtot =       16.771

Mulliken Atomic Populations:
Atom #   charge [q] valence [e]      Sz [e]  Species
     1    -0.094709    6.094709   -0.120332  Te
     2    -0.094695    6.094695   -0.120299  Te
     3     0.626710    3.373290   -0.224211  Ge
     4    -0.096700    8.096700    2.685108  Fe
     5    -0.096728    8.096728    2.685097  Fe
     6    -0.243879    8.243879    1.551737  Fe
-------------------------------------------
 Total     0.000000                6.457099

cgvc: Finished line minimization    1.  Mean atomic displacement =    0.0346

                     ====================================
                        Begin CG opt. move =      3
                     ====================================

outcoor: Atomic coordinates (Ang):                          
    2.37776776    1.76156134   12.73045687   3       1  Te
    2.37778030    1.76156083    7.49120885   3       2  Te
    0.33849591    2.93904616   10.11083244   2       3  Ge
    0.32265968    0.57129250   11.36132346   1       4  Fe
    0.32264329    0.57130601    8.86009678   1       5  Fe
    2.37200473    1.76361444   10.11079258   1       6  Fe

superc: Internal auxiliary supercell:     9 x     9 x     1  =      81
superc: Number of atoms, orbitals, and projectors:    486   6804   7776

outcell: Unit cell vectors (Ang):
        4.097694    0.000000    0.000000
       -2.048847    3.548707    0.000000
        0.000000    0.000000   30.000000

outcell: Cell vector modules (Ang)   :    4.097694    4.097694   30.000000
outcell: Cell angles (23,13,12) (deg):     90.0000     90.0000    120.0000
outcell: Cell volume (Ang**3)        :    436.2455
<dSpData1D:S at geom step 3
  <sparsity:sparsity for geom step 3
    nrows_g=84 nrows=22 sparsity=4.5011 nnzs=31760, refcount: 7>
  <dData1D:(new from dSpData1D) n=31760, refcount: 1>
refcount: 1>
new_DM -- step:     4
Re-using DM from previous geometries...
Number of DMs in history: 1
 DM extrapolation coefficients: 
1   1.00000
New DM after history re-use:
<dSpData2D:SpM extrapolated using coords
  <sparsity:sparsity for geom step 3
    nrows_g=84 nrows=22 sparsity=4.5011 nnzs=31760, refcount: 9>
  <dData2D:(temp array for extrapolation) n=31760 m=2, refcount: 1>
refcount: 1>
No. of atoms with KB's overlaping orbs in proc 0. Max # of overlaps:      39     568

InitMesh: MESH = 80 x 80 x 640 = 4096000
InitMesh: Mesh cutoff (required, used) =  1200.000  1257.823 Ry
New grid distribution [1]: sub = 2
New grid distribution [2]: sub = 2
New grid distribution [3]: sub = 2
Setting up quadratic distribution...

        iscf     Eharris(eV)        E_KS(eV)     FreeEng(eV)     dDmax    Ef(eV) dHmax(eV)
   scf:    1    -3117.028270    -3116.883002    -3116.883004  0.020581 -4.582900  0.320172
     spin moment: {S} , |S| = {        0.0        0.0    6.50444 }     6.50444
   scf:    2    -3113.430366    -3115.755924    -3115.755925  0.094031 -4.641516  4.391587
     spin moment: {S} , |S| = {        0.0        0.0    6.41110 }     6.41110
   scf:    3    -3116.906145    -3116.887872    -3116.887873  0.090036 -4.588901  0.135772
     spin moment: {S} , |S| = {        0.0        0.0    6.50444 }     6.50444
   scf:    4    -3116.888632    -3116.888380    -3116.888381  0.001111 -4.587900  0.082518
     spin moment: {S} , |S| = {        0.0        0.0    6.50444 }     6.50444
   scf:    5    -3116.888406    -3116.888482    -3116.888483  0.001020 -4.587302  0.058973
     spin moment: {S} , |S| = {        0.0        0.0    6.50444 }     6.50444
   scf:    6    -3116.889055    -3116.888835    -3116.888837  0.000856 -4.585683  0.039848
     spin moment: {S} , |S| = {        0.0        0.0    6.50444 }     6.50444
   scf:    7    -3116.889047    -3116.888958    -3116.888959  0.000967 -4.584510  0.021272
     spin moment: {S} , |S| = {        0.0        0.0    6.50444 }     6.50444
   scf:    8    -3116.888975    -3116.888967    -3116.888968  0.000120 -4.585037  0.016658
     spin moment: {S} , |S| = {        0.0        0.0    6.50444 }     6.50444
   scf:    9    -3116.889104    -3116.889038    -3116.889039  0.001124 -4.586536  0.012235
     spin moment: {S} , |S| = {        0.0        0.0    6.50444 }     6.50444
   scf:   10    -3116.889058    -3116.889048    -3116.889049  0.000292 -4.586975  0.011741
     spin moment: {S} , |S| = {        0.0        0.0    6.50444 }     6.50444
   scf:   11    -3116.889068    -3116.889058    -3116.889060  0.000392 -4.587856  0.007735
     spin moment: {S} , |S| = {        0.0        0.0    6.50444 }     6.50444
   scf:   12    -3116.889047    -3116.889054    -3116.889055  0.000205 -4.587350  0.008859
     spin moment: {S} , |S| = {        0.0        0.0    6.50444 }     6.50444
   scf:   13    -3116.889084    -3116.889068    -3116.889069  0.000636 -4.588429  0.009621
     spin moment: {S} , |S| = {        0.0        0.0    6.50444 }     6.50444
   scf:   14    -3116.889084    -3116.889075    -3116.889077  0.000460 -4.589296  0.003986
     spin moment: {S} , |S| = {        0.0        0.0    6.50444 }     6.50444
   scf:   15    -3116.889077    -3116.889076    -3116.889078  0.000067 -4.589353  0.003042
     spin moment: {S} , |S| = {        0.0        0.0    6.50444 }     6.50444
   scf:   16    -3116.889079    -3116.889078    -3116.889079  0.000078 -4.589221  0.002087
     spin moment: {S} , |S| = {        0.0        0.0    6.50444 }     6.50444
   scf:   17    -3116.889078    -3116.889078    -3116.889079  0.000017 -4.589162  0.002493
     spin moment: {S} , |S| = {        0.0        0.0    6.50444 }     6.50444
[...]
No. of atoms with KB's overlaping orbs in proc 0. Max # of overlaps:      39     568

InitMesh: MESH = 80 x 80 x 640 = 4096000
InitMesh: Mesh cutoff (required, used) =  1200.000  1257.823 Ry
New grid distribution [1]: sub = 2
New grid distribution [2]: sub = 2
New grid distribution [3]: sub = 2
Setting up quadratic distribution...

        iscf     Eharris(eV)        E_KS(eV)     FreeEng(eV)     dDmax    Ef(eV) dHmax(eV)
   scf:    1    -3116.880333    -3116.891609    -3116.891613  0.002361 -4.588977  0.154954
     spin moment: {S} , |S| = {        0.0        0.0    6.50444 }     6.50444
   scf:    2    -3116.552370    -3116.780697    -3116.780702  0.019309 -4.517884  2.542328
     spin moment: {S} , |S| = {        0.0        0.0    6.50444 }     6.50444
   scf:    3    -3116.890130    -3116.891877    -3116.891881  0.019617 -4.584448  0.076957
     spin moment: {S} , |S| = {        0.0        0.0    6.50444 }     6.50444
   scf:    4    -3116.892040    -3116.892026    -3116.892029  0.000851 -4.583932  0.008404
     spin moment: {S} , |S| = {        0.0        0.0    6.50444 }     6.50444
   scf:    5    -3116.892028    -3116.892028    -3116.892031  0.000113 -4.583958  0.002528
     spin moment: {S} , |S| = {        0.0        0.0    6.50444 }     6.50444
   scf:    6    -3116.892030    -3116.892029    -3116.892032  0.000039 -4.584072  0.001691
     spin moment: {S} , |S| = {        0.0        0.0    6.50444 }     6.50444
   scf:    7    -3116.892032    -3116.892031    -3116.892034  0.000100 -4.584454  0.000680
     spin moment: {S} , |S| = {        0.0        0.0    6.50444 }     6.50444

SCF Convergence by DM+H criterion
max |DM_out - DM_in|         :     0.0000999308
max |H_out - H_in|      (eV) :     0.0006804629
SCF cycle converged after 7 iterations

Using DM_out to compute the final energy and forces
No. of atoms with KB's overlaping orbs in proc 0. Max # of overlaps:      39     568

siesta: E_KS(eV) =            -3116.8920

siesta: Atomic forces (eV/Ang):
     1    0.003638   -0.001727   -0.000819
     2    0.003634   -0.001692    0.000748
     3   -0.006150    0.002548   -0.000144
     4   -0.001108   -0.000782   -0.001315
     5   -0.001146   -0.000800    0.000827
     6    0.001319    0.002485   -0.000462
----------------------------------------
   Tot    0.000188    0.000032   -0.001165
----------------------------------------
   Max    0.006150
   Res    0.002263    sqrt( Sum f_i^2 / 3N )
----------------------------------------
   Max    0.006150    constrained

Stress tensor Voigt[x,y,z,yz,xz,xy] (kbar):        0.73        0.73        0.00        0.00        0.00        0.01
(Free)E + p*V (eV/cell)    -3117.0247
Target enthalpy (eV/cell)    -3116.8920

mulliken: Atomic and Orbital Populations:

mulliken: Spin UP 

Species: Fe                  
Atom  Qatom  Qorb
               4s      4s      3dxy    3dyz    3dz2    3dxz    3dx2-y2 3dxy    
               3dyz    3dz2    3dxz    3dx2-y2 4Ppy    4Ppz    4Ppx    
   4  5.394   0.043   0.245   1.047   1.000   1.067   1.001   1.047  -0.100
             -0.095  -0.105  -0.095  -0.100   0.146   0.147   0.146
   5  5.394   0.043   0.245   1.047   1.001   1.067   1.001   1.047  -0.100
             -0.095  -0.105  -0.095  -0.100   0.146   0.147   0.146
   6  4.913   0.004   0.286   0.954   1.069   0.895   1.069   0.954  -0.113
             -0.163  -0.118  -0.163  -0.113   0.110   0.132   0.110

Species: Ge                  
Atom  Qatom  Qorb
               4s      4s      4py     4pz     4px     4py     4pz     4px     
               4Pdxy   4Pdyz   4Pdz2   4Pdxz   4Pdx2-y2
   3  1.574   0.852  -0.055  -0.336  -0.152  -0.337   0.545   0.282   0.545
              0.056   0.044   0.032   0.044   0.056

Species: Te                  
Atom  Qatom  Qorb
               5s      5s      5py     5pz     5px     5py     5pz     5px     
               5Pdxy   5Pdyz   5Pdz2   5Pdxz   5Pdx2-y2
   1  2.989   0.941   0.007   0.572   0.603   0.572   0.072   0.059   0.072
              0.018   0.019   0.018   0.019   0.018
   2  2.989   0.941   0.007   0.572   0.603   0.572   0.072   0.059   0.072
              0.018   0.019   0.018   0.019   0.018

mulliken: Qtot =       23.252

mulliken: Spin DOWN 

Species: Fe                  
Atom  Qatom  Qorb
               4s      4s      3dxy    3dyz    3dz2    3dxz    3dx2-y2 3dxy    
               3dyz    3dz2    3dxz    3dx2-y2 4Ppy    4Ppz    4Ppx    
   4  2.699   0.054   0.227   0.479   0.477   0.699   0.477   0.479  -0.101
             -0.099  -0.144  -0.099  -0.102   0.114   0.126   0.114
   5  2.699   0.054   0.227   0.479   0.477   0.699   0.477   0.479  -0.101
             -0.099  -0.144  -0.099  -0.101   0.114   0.126   0.114
   6  3.330  -0.025   0.304   0.659   0.798   0.520   0.798   0.658  -0.132
             -0.185  -0.106  -0.185  -0.131   0.118   0.120   0.117

Species: Ge                  
Atom  Qatom  Qorb
               4s      4s      4py     4pz     4px     4py     4pz     4px     
               4Pdxy   4Pdyz   4Pdz2   4Pdxz   4Pdx2-y2
   3  1.801   0.890  -0.065  -0.342  -0.123  -0.343   0.603   0.346   0.604
              0.055   0.043   0.035   0.043   0.055

Species: Te                  
Atom  Qatom  Qorb
               5s      5s      5py     5pz     5px     5py     5pz     5px     
               5Pdxy   5Pdyz   5Pdz2   5Pdxz   5Pdx2-y2
   1  3.110   0.945   0.006   0.629   0.595   0.629   0.071   0.062   0.071
              0.020   0.025   0.011   0.025   0.020
   2  3.110   0.945   0.006   0.629   0.595   0.629   0.072   0.062   0.071
              0.020   0.025   0.011   0.025   0.020

mulliken: Qtot =       16.748

Mulliken Atomic Populations:
Atom #   charge [q] valence [e]      Sz [e]  Species
     1    -0.098624    6.098624   -0.120571  Te
     2    -0.098612    6.098612   -0.120529  Te
     3     0.624774    3.375226   -0.226334  Ge
     4    -0.092675    8.092675    2.694440  Fe
     5    -0.092681    8.092681    2.694540  Fe
     6    -0.242182    8.242182    1.582899  Fe
-------------------------------------------
 Total    -0.000000                6.504444

cgvc: Finished line minimization    4.  Mean atomic displacement =    0.0013

                     ====================================
                        Begin CG opt. move =      9
                     ====================================

outcoor: Atomic coordinates (Ang):                          
    2.37616142    1.75864855   12.72104002   3       1  Te
    2.37616597    1.75866398    7.50046599   3       2  Te
    0.32737246    2.94133012   10.11079297   2       3  Ge
    0.32757277    0.57563629   11.35925118   1       4  Fe
    0.32756893    0.57564823    8.86209573   1       5  Fe
    2.37656288    1.75843472   10.11071346   1       6  Fe

superc: Internal auxiliary supercell:     9 x     9 x     1  =      81
superc: Number of atoms, orbitals, and projectors:    486   6804   7776

outcell: Unit cell vectors (Ang):
        4.097694    0.000000    0.000000
       -2.048847    3.548707    0.000000
        0.000000    0.000000   30.000000

outcell: Cell vector modules (Ang)   :    4.097694    4.097694   30.000000
outcell: Cell angles (23,13,12) (deg):     90.0000     90.0000    120.0000
outcell: Cell volume (Ang**3)        :    436.2455
<dSpData1D:S at geom step 9
  <sparsity:sparsity for geom step 9
    nrows_g=84 nrows=22 sparsity=4.5011 nnzs=31760, refcount: 7>
  <dData1D:(new from dSpData1D) n=31760, refcount: 1>
refcount: 1>
new_DM -- step:    10
Re-using DM from previous geometries...
Number of DMs in history: 1
 DM extrapolation coefficients: 
1   1.00000
New DM after history re-use:
<dSpData2D:SpM extrapolated using coords
  <sparsity:sparsity for geom step 9
    nrows_g=84 nrows=22 sparsity=4.5011 nnzs=31760, refcount: 9>
  <dData2D:(temp array for extrapolation) n=31760 m=2, refcount: 1>
refcount: 1>
No. of atoms with KB's overlaping orbs in proc 0. Max # of overlaps:      39     568

InitMesh: MESH = 80 x 80 x 640 = 4096000
InitMesh: Mesh cutoff (required, used) =  1200.000  1257.823 Ry
New grid distribution [1]: sub = 2
New grid distribution [2]: sub = 2
New grid distribution [3]: sub = 2
Setting up quadratic distribution...

        iscf     Eharris(eV)        E_KS(eV)     FreeEng(eV)     dDmax    Ef(eV) dHmax(eV)
   scf:    1    -3116.892541    -3116.892015    -3116.892019  0.000628 -4.583341  0.030880
     spin moment: {S} , |S| = {        0.0        0.0    6.50444 }     6.50444
   scf:    2    -3116.864741    -3116.883056    -3116.883062  0.006881 -4.595067  0.494979
     spin moment: {S} , |S| = {        0.0        0.0    6.50444 }     6.50444
   scf:    3    -3116.891765    -3116.892021    -3116.892025  0.006967 -4.584354  0.019652
     spin moment: {S} , |S| = {        0.0        0.0    6.50444 }     6.50444
   scf:    4    -3116.892033    -3116.892035    -3116.892039  0.000327 -4.584327  0.007406
     spin moment: {S} , |S| = {        0.0        0.0    6.50444 }     6.50444
   scf:    5    -3116.892036    -3116.892036    -3116.892040  0.000085 -4.584376  0.000917
     spin moment: {S} , |S| = {        0.0        0.0    6.50444 }     6.50444

SCF Convergence by DM+H criterion
max |DM_out - DM_in|         :     0.0000848860
max |H_out - H_in|      (eV) :     0.0009170195
SCF cycle converged after 5 iterations

Using DM_out to compute the final energy and forces
No. of atoms with KB's overlaping orbs in proc 0. Max # of overlaps:      39     568

siesta: E_KS(eV) =            -3116.8920

siesta: Atomic forces (eV/Ang):
     1    0.000866   -0.000465   -0.002323
     2    0.000840   -0.000475    0.001734
     3    0.002947    0.000928   -0.000129
     4   -0.000625    0.000019    0.002102
     5   -0.000641    0.000067   -0.002574
     6   -0.003209   -0.000066    0.000015
----------------------------------------
   Tot    0.000178    0.000009   -0.001175
----------------------------------------
   Max    0.003209
   Res    0.001528    sqrt( Sum f_i^2 / 3N )
----------------------------------------
   Max    0.003209    constrained

Stress tensor Voigt[x,y,z,yz,xz,xy] (kbar):        0.73        0.73       -0.01       -0.00        0.00       -0.01
(Free)E + p*V (eV/cell)    -3117.0242
Target enthalpy (eV/cell)    -3116.8920

mulliken: Atomic and Orbital Populations:

mulliken: Spin UP 

Species: Fe                  
Atom  Qatom  Qorb
               4s      4s      3dxy    3dyz    3dz2    3dxz    3dx2-y2 3dxy    
               3dyz    3dz2    3dxz    3dx2-y2 4Ppy    4Ppz    4Ppx    
   4  5.393   0.043   0.245   1.047   1.001   1.067   1.001   1.047  -0.100
             -0.095  -0.105  -0.095  -0.100   0.146   0.147   0.146
   5  5.394   0.043   0.245   1.047   1.001   1.067   1.001   1.047  -0.100
             -0.095  -0.105  -0.095  -0.100   0.146   0.147   0.146
   6  4.913   0.004   0.286   0.954   1.069   0.895   1.069   0.954  -0.113
             -0.163  -0.118  -0.163  -0.113   0.110   0.132   0.110

Species: Ge                  
Atom  Qatom  Qorb
               4s      4s      4py     4pz     4px     4py     4pz     4px     
               4Pdxy   4Pdyz   4Pdz2   4Pdxz   4Pdx2-y2
   3  1.575   0.852  -0.055  -0.337  -0.152  -0.337   0.545   0.282   0.545
              0.056   0.044   0.032   0.044   0.056

Species: Te                  
Atom  Qatom  Qorb
               5s      5s      5py     5pz     5px     5py     5pz     5px     
               5Pdxy   5Pdyz   5Pdz2   5Pdxz   5Pdx2-y2
   1  2.989   0.941   0.007   0.572   0.603   0.572   0.072   0.059   0.072
              0.018   0.019   0.018   0.019   0.018
   2  2.989   0.941   0.007   0.572   0.603   0.572   0.072   0.059   0.072
              0.018   0.019   0.018   0.019   0.018

mulliken: Qtot =       23.252

mulliken: Spin DOWN 

Species: Fe                  
Atom  Qatom  Qorb
               4s      4s      3dxy    3dyz    3dz2    3dxz    3dx2-y2 3dxy    
               3dyz    3dz2    3dxz    3dx2-y2 4Ppy    4Ppz    4Ppx    
   4  2.699   0.054   0.227   0.479   0.477   0.699   0.477   0.479  -0.101
             -0.099  -0.144  -0.099  -0.101   0.114   0.126   0.114
   5  2.699   0.054   0.227   0.479   0.477   0.699   0.477   0.479  -0.101
             -0.099  -0.144  -0.099  -0.101   0.114   0.126   0.114
   6  3.330  -0.025   0.304   0.659   0.798   0.520   0.798   0.659  -0.132
             -0.185  -0.106  -0.185  -0.131   0.117   0.120   0.117

Species: Ge                  
Atom  Qatom  Qorb
               4s      4s      4py     4pz     4px     4py     4pz     4px     
               4Pdxy   4Pdyz   4Pdz2   4Pdxz   4Pdx2-y2
   3  1.801   0.890  -0.065  -0.343  -0.123  -0.343   0.603   0.346   0.603
              0.055   0.043   0.035   0.043   0.055

Species: Te                  
Atom  Qatom  Qorb
               5s      5s      5py     5pz     5px     5py     5pz     5px     
               5Pdxy   5Pdyz   5Pdz2   5Pdxz   5Pdx2-y2
   1  3.110   0.945   0.006   0.629   0.595   0.629   0.071   0.062   0.071
              0.020   0.025   0.011   0.025   0.020
   2  3.110   0.945   0.006   0.629   0.595   0.629   0.071   0.062   0.071
              0.020   0.025   0.011   0.025   0.020

mulliken: Qtot =       16.748

Mulliken Atomic Populations:
Atom #   charge [q] valence [e]      Sz [e]  Species
     1    -0.098696    6.098696   -0.120523  Te
     2    -0.098662    6.098662   -0.120500  Te
     3     0.624648    3.375352   -0.226261  Ge
     4    -0.092551    8.092551    2.694411  Fe
     5    -0.092571    8.092571    2.694483  Fe
     6    -0.242169    8.242169    1.582835  Fe
-------------------------------------------
 Total    -0.000000                6.504444

outcoor: Relaxed atomic coordinates (Ang):                  
    2.37616142    1.75864855   12.72104002   3       1  Te
    2.37616597    1.75866398    7.50046599   3       2  Te
    0.32737246    2.94133012   10.11079297   2       3  Ge
    0.32757277    0.57563629   11.35925118   1       4  Fe
    0.32756893    0.57564823    8.86209573   1       5  Fe
    2.37656288    1.75843472   10.11071346   1       6  Fe

siesta: Program's energy decomposition (eV):
siesta: Ebs     =      -340.282631
siesta: Eions   =      3068.636035
siesta: Ena     =       275.788337
siesta: Ekin    =      3538.261161
siesta: Enl     =     -2398.203837
siesta: Eso     =         0.000000
siesta: Edftu   =         0.000000
siesta: DEna    =         2.435344
siesta: DUscf   =         0.798788
siesta: DUext   =         0.000000
siesta: Ex      =     -1378.135783
siesta: Ec      =       -89.200012
siesta: Exc     =     -1467.335795
siesta: EbV     =         0.000000
siesta: eta*DQ  =         0.000000
siesta: Emadel  =         0.000000
siesta: Emeta   =         0.000000
siesta: Emolmec =         0.000000
siesta: Ekinion =         0.000000
siesta: Eharris =     -3116.892036
siesta: Etot    =     -3116.892036
siesta: FreeEng =     -3116.892040

siesta: Final energy (eV):
siesta:  Band Struct. =    -340.282631
siesta:       Kinetic =    3538.261161
siesta:       Hartree =   16435.590438
siesta:         Edftu =       0.000000
siesta:       Eso     =       0.000000
siesta:    Ext. field =       0.000000
siesta:         Exch. =   -1378.135783
siesta:         Corr. =     -89.200012
siesta:     Bulk bias =       0.000000
siesta:   Exch.-corr. =   -1467.335795
siesta:  Ion-electron =  -35963.047647
siesta:       Ion-ion =   14339.639807
siesta:       Ekinion =       0.000000
siesta: D3 dispersion =       0.000000
siesta:         Total =   -3116.892036
siesta:         Fermi =      -4.584376

siesta: Stress tensor (static) (eV/Ang**3):
siesta:     0.000457   -0.000007    0.000001
siesta:    -0.000007    0.000455   -0.000000
siesta:     0.000001   -0.000000   -0.000003

siesta: Cell volume =        436.245461 Ang**3

siesta: Pressure (static):
siesta:                Solid            Molecule  Units
siesta:          -0.00000330         -0.00000324  Ry/Bohr**3
siesta:          -0.00030286         -0.00029750  eV/Ang**3
siesta:          -0.48522835         -0.47664086  kBar
(Free)E+ p_basis*V_orbitals  =       -3108.643255
(Free)Eharris+ p_basis*V_orbitals  =       -3108.643256

mulliken: Atomic and Orbital Populations:

mulliken: Spin UP 

Species: Fe                  
Atom  Qatom  Qorb
               4s      4s      3dxy    3dyz    3dz2    3dxz    3dx2-y2 3dxy    
               3dyz    3dz2    3dxz    3dx2-y2 4Ppy    4Ppz    4Ppx    
   4  5.393   0.043   0.245   1.047   1.001   1.067   1.001   1.047  -0.100
             -0.095  -0.105  -0.095  -0.100   0.146   0.147   0.146
   5  5.394   0.043   0.245   1.047   1.001   1.067   1.001   1.047  -0.100
             -0.095  -0.105  -0.095  -0.100   0.146   0.147   0.146
   6  4.913   0.004   0.286   0.954   1.069   0.895   1.069   0.954  -0.113
             -0.163  -0.118  -0.163  -0.113   0.110   0.132   0.110

Species: Ge                  
Atom  Qatom  Qorb
               4s      4s      4py     4pz     4px     4py     4pz     4px     
               4Pdxy   4Pdyz   4Pdz2   4Pdxz   4Pdx2-y2
   3  1.575   0.852  -0.055  -0.337  -0.152  -0.337   0.545   0.282   0.545
              0.056   0.044   0.032   0.044   0.056

Species: Te                  
Atom  Qatom  Qorb
               5s      5s      5py     5pz     5px     5py     5pz     5px     
               5Pdxy   5Pdyz   5Pdz2   5Pdxz   5Pdx2-y2
   1  2.989   0.941   0.007   0.572   0.603   0.572   0.072   0.059   0.072
              0.018   0.019   0.018   0.019   0.018
   2  2.989   0.941   0.007   0.572   0.603   0.572   0.072   0.059   0.072
              0.018   0.019   0.018   0.019   0.018

mulliken: Qtot =       23.252

mulliken: Spin DOWN 

Species: Fe                  
Atom  Qatom  Qorb
               4s      4s      3dxy    3dyz    3dz2    3dxz    3dx2-y2 3dxy    
               3dyz    3dz2    3dxz    3dx2-y2 4Ppy    4Ppz    4Ppx    
   4  2.699   0.054   0.227   0.479   0.477   0.699   0.477   0.479  -0.101
             -0.099  -0.144  -0.099  -0.101   0.114   0.126   0.114
   5  2.699   0.054   0.227   0.479   0.477   0.699   0.477   0.479  -0.101
             -0.099  -0.144  -0.099  -0.101   0.114   0.126   0.114
   6  3.330  -0.025   0.304   0.659   0.798   0.520   0.798   0.659  -0.132
             -0.185  -0.106  -0.185  -0.131   0.117   0.120   0.117

Species: Ge                  
Atom  Qatom  Qorb
               4s      4s      4py     4pz     4px     4py     4pz     4px     
               4Pdxy   4Pdyz   4Pdz2   4Pdxz   4Pdx2-y2
   3  1.801   0.890  -0.065  -0.343  -0.123  -0.343   0.603   0.346   0.603
              0.055   0.043   0.035   0.043   0.055

Species: Te                  
Atom  Qatom  Qorb
               5s      5s      5py     5pz     5px     5py     5pz     5px     
               5Pdxy   5Pdyz   5Pdz2   5Pdxz   5Pdx2-y2
   1  3.110   0.945   0.006   0.629   0.595   0.629   0.071   0.062   0.071
              0.020   0.025   0.011   0.025   0.020
   2  3.110   0.945   0.006   0.629   0.595   0.629   0.071   0.062   0.071
              0.020   0.025   0.011   0.025   0.020

mulliken: Qtot =       16.748

Mulliken Atomic Populations:
Atom #   charge [q] valence [e]      Sz [e]  Species
     1    -0.098696    6.098696   -0.120523  Te
     2    -0.098662    6.098662   -0.120500  Te
     3     0.624648    3.375352   -0.226261  Ge
     4    -0.092551    8.092551    2.694411  Fe
     5    -0.092571    8.092571    2.694483  Fe
     6    -0.242169    8.242169    1.582835  Fe
-------------------------------------------
 Total    -0.000000                6.504444

siesta: Electric dipole (a.u.)  =   -0.000000   -0.000000   -0.000011
siesta: Electric dipole (Debye) =   -0.000000   -0.000000   -0.000029

cite: Please indicate the Siesta version in published work: 5.2.2
cite: This calculation has made use of features in the following articles
cite: which we encourage you to cite in published work.
cite: (Please see "Fe3GeTe2_relax.bib" for a BibTeX file.)
        Primary SIESTA paper
          DOI: www.doi.org/10.1088/0953-8984/14/11/302


>> End of run:   5-MAY-2025  15:52:26
Job completed
