Executable      : /project/p_trildft/bin/siesta
Version         : 5.2.2
Architecture    : x86_64
Compiler version: GNU-11.2.1
Compiler flags  : -m64 -I/scratch/software/packages/intel/mkl/2023.1.0/include -fallow-argument-mismatch -O3 -march=native
Parallelisations: MPI, OpenMP
* OpenMP version: 201511
NetCDF support
NetCDF-4 support
Lua support
Native ELPA support
ELSI support. Solvers:
   ELPA (internal) 
   NTPoly
   OMM

Runtime information:
* Directory : /project/p_trildft/Fe3GxTe2/lattice_relaxation/optimal_Ga/ratio_100
* Running on 4 nodes in parallel.
* Running 1 OpenMP threads.
* Running 4 processes.
* OpenMP NOT bound (please bind threads!)
* OpenMP runtime schedule DYNAMIC, chunks 1
** Changing chunk size:
** OpenMP runtime schedule DYNAMIC, chunks 32
** OpenMP (trying to FORCE nesting)
* OpenMP allows 2147483647 nested levels.
>> Start of run:  23-APR-2025  14:35:32

                           *********************** 
                           *  WELCOME TO SIESTA  * 
                           *********************** 

 NOTE: Siesta V5 introduces some new defaults for basis-set generation
 NOTE: which might lead to slightly different numerical results.
 NOTE: Please see the manual for full details and compatibility measures.


reinit: Reading from standard input
reinit: Dumping input in INPUT_TMP.13974
************************** Dump of input data file ****************************
# FDF file for Fe3GaTe2
# General System descriptors
SystemName Fe3GaTe2                  # Descriptive name of the system
SystemLabel Fe3GaTe2_relax           # Short name for naming files
NumberOfAtoms           6            # Number of atoms
NumberOfSpecies         3            # Number of species
%block Chemical_Species_Label
  1  26  Fe
  2  31  Ga
  3  52  Te
%endblock Chemical_Species_Label
PAO.BasisSize      DZP
PAO.EnergyShift    0.001 Ry
# Lattice, coordinates, k-sampling
AtomicCoordinatesFormat Ang #link: https://c2db.fysik.dtu.dk/material/1GeTe2Fe3-1
%block AtomicCoordinatesAndAtomicSpecies
       2.3659053000      1.7565516000     12.6863155300                 3
       2.3659053200      1.7565515200      7.5354052800                 3
       0.3378719300      2.9274093600     10.1108346300                 2
       0.3378767100      0.5856540700     11.3527281700                 1
       0.3378767400      0.5856540900      8.8689175800                 1
       2.3659139900      1.7565353000     10.1108330000                 1
%endblock AtomicCoordinatesAndAtomicSpecies
%block LatticeVectors
   4.142245   0.000000   0.000000
   -2.071122   3.587289   0.000000
   0.000000   0.000000  30.00000
%endblock LatticeVectors
%block kgrid_Monkhorst_Pack
  30   0   0
  0   30   0
  0   0   1
%endblock kgrid_Monkhorst_Pack
# DFT, Grid, SCF
XC.functional          GGA
XC.authors             PBE
SpinPolarized          .true.       # Spin polarized calculation
MeshCutoff              1200 Ry     # Equivalent planewave cutoff for the grid10
MaxSCFIterations        300         # Maximum number of SCF iterations per step
DM.MixingWeight         0.1        # New DM amount for next SCF cycle
DM.Tolerance            1.d-4       # Tolerance in maximum difference
                                    # between input and output DM
SCF.Mixer.History       4           # Number of SCF steps between pulay mixing
# Eigenvalue problem: order-N or diagonalization
SolutionMethod          diagon      # OrderN or Diagon
ElectronicTemperature   5 K        # Temp. for Fermi smearing
# Molecular dynamics and relaxations
MD.TypeOfRun            CG
MD.Steps                1000
MD.MaxCGDispl           0.05 Ang
MD.MaxForceTol          0.005 eV/Ang
MD.UseSaveXV            T
MD.UseSaveCG            T
# Output options
WriteCoorInitial        .true.
WriteCoorStep           .true.
WriteForces             .true.
WriteKpoints            .false.
WriteEigenvalues        .false.
WriteKbands             .false.
WriteBands              .false.
WriteMullikenPop        1            # Write Mulliken Population Analysis
WriteCoorXmol           .false.
WriteMDCoorXmol         .false.
WriteMDhistory          .false.
WriteCoorXmol           .false.
# Options for saving/reading information
DM.UseSaveDM             T           # Use DM Continuation files
MD.UseSaveXV            .false.      # Use stored positions and velocities
MD.UseSaveCG            .false.      # Use stored positions and velocities
SaveRho                  T           # Write valence pseudocharge at the mesh
SaveDeltaRho             T           # Write RHOscf-RHOatm at the mesh
SaveElectrostaticPotential .false.   # Write the total elect. pot. at the mesh
SaveTotalPotential      .false.      # Write the total pot. at the mesh
WriteSiestaDim          .false.      # Write minimum dim to siesta.h and stop
WriteDenchar             T           # Write information for DENCHAR
Diag.ParallelOverK       T
************************** End of input data file *****************************

reinit: -----------------------------------------------------------------------
reinit: System Name: Fe3GaTe2
reinit: -----------------------------------------------------------------------
reinit: System Label: Fe3GaTe2_relax
reinit: -----------------------------------------------------------------------

NOTE on units for spin output: 
{S} is the spin magnetic moment, in units of the Bohr magneton,
assuming a g-factor for the electron spin of exactly 2.
The spin magnetic moment is then numerically equal to the charge inbalance,
in units of electrons, between the spin-up and -down channels.


initatom: Reading input for the pseudopotentials and atomic orbitals ----------
Species number:   1 Atomic number:   26 Label: Fe
Species number:   2 Atomic number:   31 Label: Ga
Species number:   3 Atomic number:   52 Label: Te

Ground state valence configuration (from tables):   4s02  4p00  3d06  4f00
Ground state valence configuration (from tables):   4s02  4p01  4d00  4f00
Ground state valence configuration (from tables):   5s02  5p04  5d00  4f00

---- Processing specs for species: Fe
Reading pseudopotential information in formatted form from:
  Fe.psf

---- Processing specs for species: Ga
Reading pseudopotential information in formatted form from:
  Ga.psf

---- Processing specs for species: Te
Reading pseudopotential information in formatted form from:
  Te.psf

---- Pseudopotential check for Fe

Pseudopotential generated from a fully relativistic atomic calculation
There are spin-orbit semi-local pseudopotentials available

Pseudized shells:
4s( 2.00) rc: 1.72
4p( 0.00) rc: 2.15
3d( 6.00) rc: 0.84
4f( 0.00) rc: 2.00
Valence configuration for ps generation: (assumed as above)

---- Pseudopotential check for Ga

Pseudopotential generated from a fully relativistic atomic calculation
There are spin-orbit semi-local pseudopotentials available

Pseudized shells:
4s( 2.00) rc: 3.05
4p( 1.00) rc: 3.21
4d( 0.00) rc: 2.00
4f( 0.00) rc: 2.00
Valence configuration for ps generation: (assumed as above)

---- Pseudopotential check for Te

Pseudopotential generated from a fully relativistic atomic calculation
There are spin-orbit semi-local pseudopotentials available

Pseudized shells:
5s( 2.00) rc: 1.40
5p( 4.00) rc: 1.63
5d( 0.00) rc: 1.99
4f( 0.00) rc: 1.99
Valence configuration for ps generation: (assumed as above)
For Fe, standard SIESTA heuristics set lmxkb to 3
 (one more than the basis l, including polarization orbitals).
Use PS.lmax or PS.KBprojectors blocks to override.
For Ga, standard SIESTA heuristics set lmxkb to 3
 (one more than the basis l, including polarization orbitals).
Use PS.lmax or PS.KBprojectors blocks to override.
For Te, standard SIESTA heuristics set lmxkb to 3
 (one more than the basis l, including polarization orbitals).
Use PS.lmax or PS.KBprojectors blocks to override.

<basis_specs>
===============================================================================
Fe                   Z=  26    Mass=  55.845        Charge= 0.17977+309
Lmxo=2 Lmxkb= 3    BasisType=split      Semic=F
L=0  Nsemic=0  Cnfigmx=4
          i=1  nzeta=2  polorb=1  (4s)  (to be polarized perturbatively)
            splnorm:   0.15000    
               vcte:    40.000    
               rinn:  -0.90000    
               qcoe:    0.0000    
               qyuk:    0.0000    
               qwid:   0.10000E-01
                rcs:    0.0000      0.0000    
            lambdas:    1.0000      1.0000    
L=1  Nsemic=0  Cnfigmx=4
          i=1  nzeta=0  polorb=0  (4p)  (perturbative polarization orbital) (from 4s)
L=2  Nsemic=0  Cnfigmx=3
          i=1  nzeta=2  polorb=0  (3d)
            splnorm:   0.15000    
               vcte:    40.000    
               rinn:  -0.90000    
               qcoe:    0.0000    
               qyuk:    0.0000    
               qwid:   0.10000E-01
                rcs:    0.0000      0.0000    
            lambdas:    1.0000      1.0000    
-------------------------------------------------------------------------------
L=0  Nkbl=1  erefs: 0.17977+309
L=1  Nkbl=1  erefs: 0.17977+309
L=2  Nkbl=1  erefs: 0.17977+309
L=3  Nkbl=1  erefs: 0.17977+309
===============================================================================
</basis_specs>

Using PAO.SplitTailNorm
atom: Called for Fe                    (Z =  26)
Maximum radius (at nrval) set to   50.00000 8518

read_vps: Pseudopotential generation method:
read_vps: ATM4.2.7  Troullier-Martins                       
Valence charge in pseudo generation:    8.00000

read_vps: Pseudopotential includes a core correction:
read_vps: Pseudo-core for xc-correction

xc_check: Exchange-correlation functional:
xc_check: GGA Perdew, Burke & Ernzerhof 1996
V l=0 = -2*Zval/r beyond r=  2.7517
V l=1 = -2*Zval/r beyond r=  2.7517
V l=2 = -2*Zval/r beyond r=  2.7517
V l=3 = -2*Zval/r beyond r=  2.7517
All V_l potentials equal beyond r=  2.1408
This should be close to max(r_c) in ps generation
All pots = -2*Zval/r beyond r=  2.7517
Using small-core scheme (local charge) for Vlocal

VLOCAL_FROM_CHLOCAL: 99.0% of the norm of Vloc inside      9.472 Ry
VLOCAL_FROM_CHLOCAL: 99.9% of the norm of Vloc inside     21.586 Ry
atom: Maximum radius for chlocal:    2.57269
atom: Maximum radius for r*vlocal+2*Zval:    2.37889

KBgen: Kleinman-Bylander projectors: 
GHOST: No ghost state for L =  0
   l= 0   rc=  2.928296   el= -0.388312   Ekb=  5.219433   kbcos=  0.240863
GHOST: No ghost state for L =  1
   l= 1   rc=  3.005693   el= -0.097563   Ekb=  2.157003   kbcos=  0.224184
GHOST: No ghost state for L =  2
   l= 2   rc=  2.588228   el= -0.553222   Ekb=-34.168208   kbcos= -0.542811
GHOST: No ghost state for L =  3
   l= 3   rc=  3.217894   el=  0.019212   Ekb= -1.637044   kbcos= -0.007020

KBgen: Total number of Kleinman-Bylander projectors:  16
atom: -------------------------------------------------------------------------

atom: SANKEY-TYPE ORBITALS:
atom: Selected multiple-zeta basis: split     

SPLIT: Orbitals with angular momentum L= 0

SPLIT: Basis orbitals for state 4s

SPLIT: PAO cut-off radius determined from an
SPLIT: energy shift=  0.001000 Ry
Split based on tail norm

   izeta = 1
                 lambda =    1.000000
                     rc =    8.950534
                 energy =   -0.387036
                kinetic =    0.294112
    potential(screened) =   -0.681149
       potential(ionic) =   -5.918860

   izeta = 2
                 rmatch =    5.732128
              splitnorm =    0.150000
                 energy =   -0.294432
                kinetic =    0.574543
    potential(screened) =   -0.868975
       potential(ionic) =   -6.678390

SPLIT: Orbitals with angular momentum L= 2

SPLIT: Basis orbitals for state 3d

SPLIT: PAO cut-off radius determined from an
SPLIT: energy shift=  0.001000 Ry
Split based on tail norm

   izeta = 1
                 lambda =    1.000000
                     rc =    5.567997
                 energy =   -0.552067
                kinetic =   13.500088
    potential(screened) =  -14.052155
       potential(ionic) =  -23.382853

   izeta = 2
                 rmatch =    2.872995
              splitnorm =    0.150000
                 energy =   -0.444868
                kinetic =   16.180141
    potential(screened) =  -16.625010
       potential(ionic) =  -26.515786

POLgen: Perturbative polarization orbital with L=  1

POLgen: Polarization orbital for state 4s
Split based on tail norm

   izeta = 1
                     rc =    8.950534
                 energy =   -0.060045
                kinetic =    0.514836
    potential(screened) =   -0.574880
       potential(ionic) =   -5.318417
atom: Total number of Sankey-type orbitals: 15

atm_pop: Valence configuration (for local Pseudopot. screening):
 4s( 2.00)                                                            
 4p( 0.00)                                                            
 3d( 6.00)                                                            
Vna: chval, zval:    8.00000   8.00000

Vna:  Cut-off radius for the neutral-atom potential:   8.950534
comcore: Pseudo-core radius Rcore=  3.744030

atom: _________________________________________________________________________

<basis_specs>
===============================================================================
Ga                   Z=  31    Mass=  69.723        Charge= 0.17977+309
Lmxo=2 Lmxkb= 3    BasisType=split      Semic=F
L=0  Nsemic=0  Cnfigmx=4
          i=1  nzeta=2  polorb=0  (4s)
            splnorm:   0.15000    
               vcte:    40.000    
               rinn:  -0.90000    
               qcoe:    0.0000    
               qyuk:    0.0000    
               qwid:   0.10000E-01
                rcs:    0.0000      0.0000    
            lambdas:    1.0000      1.0000    
L=1  Nsemic=0  Cnfigmx=4
          i=1  nzeta=2  polorb=1  (4p)  (to be polarized perturbatively)
            splnorm:   0.15000    
               vcte:    40.000    
               rinn:  -0.90000    
               qcoe:    0.0000    
               qyuk:    0.0000    
               qwid:   0.10000E-01
                rcs:    0.0000      0.0000    
            lambdas:    1.0000      1.0000    
L=2  Nsemic=0  Cnfigmx=4
          i=1  nzeta=0  polorb=0  (4d)  (perturbative polarization orbital) (from 4p)
-------------------------------------------------------------------------------
L=0  Nkbl=1  erefs: 0.17977+309
L=1  Nkbl=1  erefs: 0.17977+309
L=2  Nkbl=1  erefs: 0.17977+309
L=3  Nkbl=1  erefs: 0.17977+309
===============================================================================
</basis_specs>

Using PAO.SplitTailNorm
atom: Called for Ga                    (Z =  31)
Maximum radius (at nrval) set to   50.00000 8518

read_vps: Pseudopotential generation method:
read_vps: ATM4.2.7  Troullier-Martins                       
Valence charge in pseudo generation:    3.00000

xc_check: Exchange-correlation functional:
xc_check: GGA Perdew, Burke & Ernzerhof 1996
V l=0 = -2*Zval/r beyond r=  5.7321
V l=1 = -2*Zval/r beyond r=  5.7321
V l=2 = -2*Zval/r beyond r=  5.7321
V l=3 = -2*Zval/r beyond r=  5.7321
All V_l potentials equal beyond r=  3.1508
This should be close to max(r_c) in ps generation
All pots = -2*Zval/r beyond r=  5.7321
Using large-core scheme (fit) for Vlocal

atom: Estimated core radius    5.73213

atom: Including non-local core corrections could be a good idea
Fit of Vlocal with continuous 2nd derivative
Fitting vlocal at       3.1603
Choosing vlocal chloc cutoff:  6415  6.093301
qtot up to nchloc:    3.00020432
atom: Maximum radius for chlocal:    6.09330
atom: Maximum radius for r*vlocal+2*Zval:    6.09330

KBgen: Kleinman-Bylander projectors: 
GHOST: No ghost state for L =  0
   l= 0   rc=  3.125629   el= -0.656302   Ekb=  3.501538   kbcos=  0.115288
GHOST: No ghost state for L =  1
   l= 1   rc=  3.201794   el= -0.189747   Ekb= -0.142947   kbcos= -0.528288
GHOST: No ghost state for L =  2
   l= 2   rc=  3.131907   el=  0.012464   Ekb=  6.496336   kbcos=  0.020535
GHOST: No ghost state for L =  3
   l= 3   rc=  3.141346   el=  0.019134   Ekb= -1.261809   kbcos= -0.018847

KBgen: Total number of Kleinman-Bylander projectors:  16
atom: -------------------------------------------------------------------------

atom: SANKEY-TYPE ORBITALS:
atom: Selected multiple-zeta basis: split     

SPLIT: Orbitals with angular momentum L= 0

SPLIT: Basis orbitals for state 4s

SPLIT: PAO cut-off radius determined from an
SPLIT: energy shift=  0.001000 Ry
Split based on tail norm

   izeta = 1
                 lambda =    1.000000
                     rc =    7.326265
                 energy =   -0.655048
                kinetic =    0.381917
    potential(screened) =   -1.036966
       potential(ionic) =   -2.634158

   izeta = 2
                 rmatch =    4.529559
              splitnorm =    0.150000
                 energy =   -0.543745
                kinetic =    0.648741
    potential(screened) =   -1.192486
       potential(ionic) =   -2.896556

SPLIT: Orbitals with angular momentum L= 1

SPLIT: Basis orbitals for state 4p

SPLIT: PAO cut-off radius determined from an
SPLIT: energy shift=  0.001000 Ry
Split based on tail norm

   izeta = 1
                 lambda =    1.000000
                     rc =   10.760704
                 energy =   -0.188486
                kinetic =    0.538919
    potential(screened) =   -0.727405
       potential(ionic) =   -2.082330

   izeta = 2
                 rmatch =    6.926725
              splitnorm =    0.150000
                 energy =   -0.148954
                kinetic =    0.768784
    potential(screened) =   -0.917739
       potential(ionic) =   -2.400269

POLgen: Perturbative polarization orbital with L=  2

POLgen: Polarization orbital for state 4p
Split based on tail norm

   izeta = 1
                     rc =   10.760704
                 energy =    0.237448
                kinetic =    2.073656
    potential(screened) =   -1.836208
       potential(ionic) =   -3.064419
atom: Total number of Sankey-type orbitals: 13

atm_pop: Valence configuration (for local Pseudopot. screening):
 4s( 2.00)                                                            
 4p( 1.00)                                                            
 4d( 0.00)                                                            
Vna: chval, zval:    3.00000   3.00000

Vna:  Cut-off radius for the neutral-atom potential:  10.760704

atom: _________________________________________________________________________

<basis_specs>
===============================================================================
Te                   Z=  52    Mass=  127.60        Charge= 0.17977+309
Lmxo=2 Lmxkb= 3    BasisType=split      Semic=F
L=0  Nsemic=0  Cnfigmx=5
          i=1  nzeta=2  polorb=0  (5s)
            splnorm:   0.15000    
               vcte:    40.000    
               rinn:  -0.90000    
               qcoe:    0.0000    
               qyuk:    0.0000    
               qwid:   0.10000E-01
                rcs:    0.0000      0.0000    
            lambdas:    1.0000      1.0000    
L=1  Nsemic=0  Cnfigmx=5
          i=1  nzeta=2  polorb=1  (5p)  (to be polarized perturbatively)
            splnorm:   0.15000    
               vcte:    40.000    
               rinn:  -0.90000    
               qcoe:    0.0000    
               qyuk:    0.0000    
               qwid:   0.10000E-01
                rcs:    0.0000      0.0000    
            lambdas:    1.0000      1.0000    
L=2  Nsemic=0  Cnfigmx=5
          i=1  nzeta=0  polorb=0  (5d)  (perturbative polarization orbital) (from 5p)
-------------------------------------------------------------------------------
L=0  Nkbl=1  erefs: 0.17977+309
L=1  Nkbl=1  erefs: 0.17977+309
L=2  Nkbl=1  erefs: 0.17977+309
L=3  Nkbl=1  erefs: 0.17977+309
===============================================================================
</basis_specs>

Using PAO.SplitTailNorm
atom: Called for Te                    (Z =  52)
Maximum radius (at nrval) set to   50.00000 8518

read_vps: Pseudopotential generation method:
read_vps: ATM4.2.7  Troullier-Martins                       
Valence charge in pseudo generation:    6.00000

xc_check: Exchange-correlation functional:
xc_check: GGA Perdew, Burke & Ernzerhof 1996
V l=0 = -2*Zval/r beyond r=  3.5431
V l=1 = -2*Zval/r beyond r=  3.5431
V l=2 = -2*Zval/r beyond r=  3.5431
V l=3 = -2*Zval/r beyond r=  3.5431
All V_l potentials equal beyond r=  1.9794
This should be close to max(r_c) in ps generation
All pots = -2*Zval/r beyond r=  3.5431
Using large-core scheme (fit) for Vlocal

atom: Estimated core radius    3.54313

atom: Including non-local core corrections could be a good idea
Fit of Vlocal with continuous 2nd derivative
Fitting vlocal at       1.9854
Choosing vlocal chloc cutoff:  5904  3.651342
qtot up to nchloc:    5.99916213
atom: Maximum radius for chlocal:    3.65134
atom: Maximum radius for r*vlocal+2*Zval:    4.04451

KBgen: Kleinman-Bylander projectors: 
GHOST: No ghost state for L =  0
   l= 0   rc=  1.971452   el= -1.105858   Ekb= 12.451509   kbcos=  0.234057
GHOST: No ghost state for L =  1
   l= 1   rc=  1.973434   el= -0.435776   Ekb=  7.015598   kbcos=  0.226306
GHOST: No ghost state for L =  2
   l= 2   rc=  2.007441   el=  0.012840   Ekb=336.599753   kbcos=  0.002151
GHOST: No ghost state for L =  3
   l= 3   rc=  1.985371   el=  0.019218   Ekb= -8.078036   kbcos= -0.015126

KBgen: Total number of Kleinman-Bylander projectors:  16
atom: -------------------------------------------------------------------------

atom: SANKEY-TYPE ORBITALS:
atom: Selected multiple-zeta basis: split     

SPLIT: Orbitals with angular momentum L= 0

SPLIT: Basis orbitals for state 5s

SPLIT: PAO cut-off radius determined from an
SPLIT: energy shift=  0.001000 Ry
Split based on tail norm

   izeta = 1
                 lambda =    1.000000
                     rc =    6.204155
                 energy =   -1.104611
                kinetic =    0.794635
    potential(screened) =   -1.899246
       potential(ionic) =   -5.820433

   izeta = 2
                 rmatch =    3.827533
              splitnorm =    0.150000
                 energy =   -0.763023
                kinetic =    1.815370
    potential(screened) =   -2.578393
       potential(ionic) =   -6.683104

SPLIT: Orbitals with angular momentum L= 1

SPLIT: Basis orbitals for state 5p

SPLIT: PAO cut-off radius determined from an
SPLIT: energy shift=  0.001000 Ry
Split based on tail norm

   izeta = 1
                 lambda =    1.000000
                     rc =    8.179311
                 energy =   -0.434519
                kinetic =    0.882208
    potential(screened) =   -1.316728
       potential(ionic) =   -4.855433

   izeta = 2
                 rmatch =    5.123716
              splitnorm =    0.150000
                 energy =   -0.351249
                kinetic =    1.282664
    potential(screened) =   -1.633913
       potential(ionic) =   -5.446645

POLgen: Perturbative polarization orbital with L=  2

POLgen: Polarization orbital for state 5p
Split based on tail norm

   izeta = 1
                     rc =    8.179311
                 energy =    0.314940
                kinetic =    2.306924
    potential(screened) =   -1.991984
       potential(ionic) =   -5.302094
atom: Total number of Sankey-type orbitals: 13

atm_pop: Valence configuration (for local Pseudopot. screening):
 5s( 2.00)                                                            
 5p( 4.00)                                                            
 5d( 0.00)                                                            
Vna: chval, zval:    6.00000   6.00000

Vna:  Cut-off radius for the neutral-atom potential:   8.179311

atom: _________________________________________________________________________

prinput: Basis input 

PAO.BasisType split     

%block ChemicalSpeciesLabel
    1   26 Fe                      # Species index, atomic number, species label
    2   31 Ga                      # Species index, atomic number, species label
    3   52 Te                      # Species index, atomic number, species label
%endblock ChemicalSpeciesLabel

%block PAO.Basis                 # Define Basis set
# WARNING: This information might be incomplete!
Fe                    2                    # Species label, number of l-shells
 n=4   0   2 P   1                   # n, l, Nzeta, Polarization, NzetaPol
   8.951      5.732   
   1.000      1.000   
 n=3   2   2                         # n, l, Nzeta 
   5.568      2.873   
   1.000      1.000   
Ga                    2                    # Species label, number of l-shells
 n=4   0   2                         # n, l, Nzeta 
   7.326      4.530   
   1.000      1.000   
 n=4   1   2 P   1                   # n, l, Nzeta, Polarization, NzetaPol
  10.761      6.927   
   1.000      1.000   
Te                    2                    # Species label, number of l-shells
 n=5   0   2                         # n, l, Nzeta 
   6.204      3.828   
   1.000      1.000   
 n=5   1   2 P   1                   # n, l, Nzeta, Polarization, NzetaPol
   8.179      5.124   
   1.000      1.000   
%endblock PAO.Basis

prinput: ----------------------------------------------------------------------

Dumping basis to NetCDF file Fe.ion.nc
Dumping basis to NetCDF file Ga.ion.nc
Dumping basis to NetCDF file Te.ion.nc
coor:   Atomic-coordinates input format  =     Cartesian coordinates
coor:                                          (in Angstroms)

siesta: WARNING: XV file not found

siesta: Atomic coordinates (Bohr) and species
siesta:      4.47091   3.31940  23.97366  3        1
siesta:      4.47091   3.31940  14.23985  3        2
siesta:      0.63849   5.53200  19.10671  2        3
siesta:      0.63849   1.10673  21.45355  1        4
siesta:      0.63849   1.10673  16.75983  1        5
siesta:      4.47093   3.31937  19.10671  1        6

siesta: System type = slab      

initatomlists: Number of atoms, orbitals, and projectors:      6    84    96

siesta: ******************** Simulation parameters ****************************
siesta:
siesta: The following are some of the parameters of the simulation.
siesta: A complete list of the parameters used, including default values,
siesta: can be found in file out.fdf
siesta:
redata: Spin configuration                          = collinear
redata: Number of spin components                   = 2
redata: Time-Reversal Symmetry                      = T
redata: Spin spiral                                 = F
redata: Long output                                 =   F
redata: Number of Atomic Species                    =        3
redata: Charge density info will appear in .RHO file
redata: Write Mulliken charges (when)               = geometry+end
redata: Write Mulliken Pop.                         = Atomic and Orbital charges
redata: Write Hirshfeld charges (when)              = none
redata: Write Voronoi charges (when)                = none
redata: Write spin charge (when)                    = scf
redata: Matel table size (NRTAB)                    =     1024
redata: Mesh Cutoff                                 =  1200.0000 Ry
redata: Net charge of the system                    =     0.0000 |e|
redata: Min. number of SCF Iter                     =        0
redata: Max. number of SCF Iter                     =      300
redata: SCF convergence failure will abort job
redata: SCF mix quantity                            = Hamiltonian
redata: Mix DM or H after convergence               =   F
redata: Recompute H after scf cycle                 =   F
redata: Mix DM in first SCF step                    =   T
redata: Write Pulay info on disk                    =   F
redata: New DM Occupancy tolerance                  = 0.000000000001
redata: No kicks to SCF
redata: DM Mixing Weight for Kicks                  =     0.5000
redata: Require Harris convergence for SCF          =   F
redata: Harris energy tolerance for SCF             =     0.000100 eV
redata: Require DM convergence for SCF              =   T
redata: DM tolerance for SCF                        =     0.000100
redata: Require EDM convergence for SCF             =   F
redata: EDM tolerance for SCF                       =     0.001000 eV
redata: Require H convergence for SCF               =   T
redata: Hamiltonian tolerance for SCF               =     0.001000 eV
redata: Require (free) Energy convergence for SCF   =   F
redata: (free) Energy tolerance for SCF             =     0.000100 eV
redata: Antiferro initial spin density              =   F
redata: Using Saved Data (generic)                  =   F
redata: Use continuation files for DM               =   T
redata: Neglect nonoverlap interactions             =   F
redata: Method of Calculation                       = Diagonalization
redata: Electronic Temperature                      =     5.0000 K
redata: Fix the spin of the system                  =   F
redata: Max. number of TDED Iter                    =        1
redata: Number of TDED substeps                     =        3
redata: Dynamics option                             = CG coord. optimization
redata: Variable cell                               =   F
redata: Use continuation files for CG               =   T
redata: Max atomic displ per move                   =     0.0500 Ang
redata: Maximum number of optimization moves        =     1000
redata: Force tolerance                             =     0.0050 eV/Ang
mix.SCF: Pulay mixing                            = Pulay
mix.SCF:    Variant                              = stable
mix.SCF:    History steps                        = 4
mix.SCF:    Linear mixing weight                 =     0.100000
mix.SCF:    Mixing weight                        =     0.100000
mix.SCF:    SVD condition                        = 0.1000E-07
mix.SCF: Spin-component mixing                   all
redata: Save all siesta data in one NC              =   F
redata: ***********************************************************************

%block SCF.Mixers
  Pulay
%endblock SCF.Mixers

%block SCF.Mixer.Pulay
  # Mixing method
  method pulay
  variant stable

  # Mixing options
  weight 0.1000
  weight.linear 0.1000
  history 4
%endblock SCF.Mixer.Pulay

DM_history_depth set to one: no extrapolation allowed by default for geometry relaxation
Size of DM history Fstack: 1
Total number of electrons:    39.000000
Total ionic charge:    39.000000

* ProcessorY, Blocksize:    1  22


* Orbital distribution balance (max,min):    22    18

k-point displ. along   1 input, could be:     0.00    0.50
k-point displ. along   2 input, could be:     0.00    0.50
 Kpoints in:          480 . Kpoints trimmed:          466

siesta: k-grid: Number of k-points = 466
siesta: k-points from Monkhorst-Pack grid
siesta: k-cutoff (effective) =    15.000 Ang
siesta: k-point supercell and displacements
siesta: k-grid:    30     0     0      0.000
siesta: k-grid:     0    30     0      0.000
siesta: k-grid:     0     0     1      0.000

diag: Algorithm                                     = D&C
diag: Parallel over k                               =   T
diag: Use parallel 2D distribution                  =   T
diag: Parallel block-size                           = 22
diag: Parallel distribution                         =     2 x     2
diag: Used triangular part                          = Lower
diag: Absolute tolerance                            =  0.100E-15
diag: Orthogonalization factor                      =  0.100E-05
diag: Memory factor                                 =  1.0000

superc: Internal auxiliary supercell:     9 x     9 x     1  =      81
superc: Number of atoms, orbitals, and projectors:    486   6804   7776


ts: **************************************************************
ts: Save H and S matrices                           =    F
ts: Save DM and EDM matrices                        =    F
ts: Only save the overlap matrix S                  =    F
ts: **************************************************************

************************ Begin: TS CHECKS AND WARNINGS ************************
************************ End: TS CHECKS AND WARNINGS **************************


                     ====================================
                        Begin CG opt. move =      0
                     ====================================

outcoor: Atomic coordinates (Ang):                          
    2.36590530    1.75655160   12.68631553   3       1  Te
    2.36590532    1.75655152    7.53540528   3       2  Te
    0.33787193    2.92740936   10.11083463   2       3  Ga
    0.33787671    0.58565407   11.35272817   1       4  Fe
    0.33787674    0.58565409    8.86891758   1       5  Fe
    2.36591399    1.75653530   10.11083300   1       6  Fe

superc: Internal auxiliary supercell:     9 x     9 x     1  =      81
superc: Number of atoms, orbitals, and projectors:    486   6804   7776

outcell: Unit cell vectors (Ang):
        4.142245    0.000000    0.000000
       -2.071122    3.587289    0.000000
        0.000000    0.000000   30.000000

outcell: Cell vector modules (Ang)   :    4.142245    4.142244   30.000000
outcell: Cell angles (23,13,12) (deg):     90.0000     90.0000    120.0000
outcell: Cell volume (Ang**3)        :    445.7829
<dSpData1D:S at geom step 0
  <sparsity:sparsity for geom step 0
    nrows_g=84 nrows=22 sparsity=4.0655 nnzs=28686, refcount: 7>
  <dData1D:(new from dSpData1D) n=28686, refcount: 1>
refcount: 1>
new_DM -- step:     1
Initializing Density Matrix...

Attempting to read DM from file... Failed...
DM filled with atomic data:
<dSpData2D:DM initialized from atoms
  <sparsity:sparsity for geom step 0
    nrows_g=84 nrows=22 sparsity=4.0655 nnzs=28686, refcount: 8>
  <dData2D:DM n=28686 m=2, refcount: 1>
refcount: 1>
No. of atoms with KB's overlaping orbs in proc 0. Max # of overlaps:      39     470

InitMesh: MESH = 80 x 80 x 640 = 4096000
InitMesh: Mesh cutoff (required, used) =  1200.000  1257.823 Ry
New grid distribution [1]: sub = 2
New grid distribution [2]: sub = 2
New grid distribution [3]: sub = 2
Setting up quadratic distribution...

stepf: Fermi-Dirac step function

siesta: Program's energy decomposition (eV):
siesta: Ebs     =       313.700573
siesta: Eions   =      3245.743898
siesta: Ena     =       492.719667
siesta: Ekin    =      3851.078778
siesta: Enl     =     -2658.989644
siesta: Eso     =         0.000000
siesta: Edftu   =         0.000000
siesta: DEna    =       -17.381444
siesta: DUscf   =        31.011098
siesta: DUext   =         0.000000
siesta: Ex      =     -1406.174303
siesta: Ec      =       -88.049154
siesta: Exc     =     -1494.223457
siesta: EbV     =         0.000000
siesta: eta*DQ  =         0.000000
siesta: Emadel  =         0.000000
siesta: Emeta   =         0.000000
siesta: Emolmec =         0.000000
siesta: Ekinion =         0.000000
siesta: Eharris =     -2979.468311
siesta: Etot    =     -3041.528899
siesta: FreeEng =     -3041.528904

        iscf     Eharris(eV)        E_KS(eV)     FreeEng(eV)     dDmax    Ef(eV) dHmax(eV)
   scf:    1    -2979.468311    -3041.528899    -3041.528904  2.341954 -6.623678 39.632842
     spin moment: {S} , |S| = {        0.0        0.0    7.36490 }     7.36490
timer: Routine,Calls,Time,% = IterSCF        1      11.869  23.25
   scf:    2    -3025.158849    -3059.008333    -3059.008341  0.632161 -4.805228 19.852367
     spin moment: {S} , |S| = {        0.0        0.0    8.77361 }     8.77361
   scf:    3    -3050.827494    -3064.740408    -3064.740417  0.511624 -5.095185 10.886091
     spin moment: {S} , |S| = {        0.0        0.0    8.64271 }     8.64271
   scf:    4    -3067.223507    -3067.544706    -3067.544709  0.210906 -5.069382  1.616229
     spin moment: {S} , |S| = {        0.0        0.0    8.46453 }     8.46453
   scf:    5    -3062.024306    -3065.992743    -3065.992748  0.258792 -4.771756  8.923993
     spin moment: {S} , |S| = {        0.0        0.0    7.02667 }     7.02667
   scf:    6    -3067.647174    -3067.962347    -3067.962350  0.174016 -4.887525  1.291269
     spin moment: {S} , |S| = {        0.0        0.0    7.50005 }     7.50005
   scf:    7    -3068.100728    -3068.049257    -3068.049262  0.029207 -4.830743  0.808553
     spin moment: {S} , |S| = {        0.0        0.0    7.17753 }     7.17753
   scf:    8    -3068.081636    -3068.069813    -3068.069816  0.010825 -4.842507  0.437123
     spin moment: {S} , |S| = {        0.0        0.0    7.15060 }     7.15060
   scf:    9    -3068.175993    -3068.124287    -3068.124291  0.036913 -4.833261  0.509142
     spin moment: {S} , |S| = {        0.0        0.0    6.87327 }     6.87327
   scf:   10    -3068.129656    -3068.130316    -3068.130319  0.007127 -4.841340  0.374627
     spin moment: {S} , |S| = {        0.0        0.0    6.83955 }     6.83955
   scf:   11    -3068.193043    -3068.163186    -3068.163190  0.037094 -4.837042  0.463296
     spin moment: {S} , |S| = {        0.0        0.0    6.60928 }     6.60928
   scf:   12    -3068.182195    -3068.173565    -3068.173567  0.007401 -4.833125  0.281106
     spin moment: {S} , |S| = {        0.0        0.0    6.52705 }     6.52705
   scf:   13    -3068.168288    -3068.171595    -3068.171600  0.003919 -4.835247  0.286593
     spin moment: {S} , |S| = {        0.0        0.0    6.55720 }     6.55720
   scf:   14    -3068.216589    -3068.192601    -3068.192604  0.030880 -4.821952  0.271110
     spin moment: {S} , |S| = {        0.0        0.0    6.34129 }     6.34129
   scf:   15    -3068.216212    -3068.203336    -3068.203339  0.023062 -4.796796  0.177659
     spin moment: {S} , |S| = {        0.0        0.0    6.19231 }     6.19231
   scf:   16    -3068.197374    -3068.200707    -3068.200709  0.010463 -4.809424  0.189826
     spin moment: {S} , |S| = {        0.0        0.0    6.24247 }     6.24247
   scf:   17    -3068.199733    -3068.200599    -3068.200602  0.002208 -4.811318  0.198651
     spin moment: {S} , |S| = {        0.0        0.0    6.24886 }     6.24886
   scf:   18    -3068.206148    -3068.203364    -3068.203366  0.006763 -4.813460  0.178676
     spin moment: {S} , |S| = {        0.0        0.0    6.21052 }     6.21052
   scf:   19    -3068.201667    -3068.202543    -3068.202547  0.002900 -4.812025  0.164988
     spin moment: {S} , |S| = {        0.0        0.0    6.22459 }     6.22459
   scf:   20    -3068.211583    -3068.206808    -3068.206811  0.011348 -4.795211  0.180772
     spin moment: {S} , |S| = {        0.0        0.0    6.16602 }     6.16602
   scf:   21    -3068.203647    -3068.205209    -3068.205212  0.005120 -4.807921  0.094356
     spin moment: {S} , |S| = {        0.0        0.0    6.19649 }     6.19649
   scf:   22    -3068.204637    -3068.204942    -3068.204944  0.000619 -4.810423  0.127622
     spin moment: {S} , |S| = {        0.0        0.0    6.19957 }     6.19957
   scf:   23    -3068.208624    -3068.206697    -3068.206699  0.005427 -4.802726  0.105161
     spin moment: {S} , |S| = {        0.0        0.0    6.17614 }     6.17614
   scf:   24    -3068.212055    -3068.209054    -3068.209056  0.011796 -4.791968  0.050850
     spin moment: {S} , |S| = {        0.0        0.0    6.11163 }     6.11163
   scf:   25    -3068.207480    -3068.208295    -3068.208298  0.004172 -4.794197  0.105349
     spin moment: {S} , |S| = {        0.0        0.0    6.14134 }     6.14134
   scf:   26    -3068.210261    -3068.209255    -3068.209256  0.005187 -4.791157  0.045198
     spin moment: {S} , |S| = {        0.0        0.0    6.11118 }     6.11118
   scf:   27    -3068.208860    -3068.209086    -3068.209089  0.001335 -4.792281  0.084461
     spin moment: {S} , |S| = {        0.0        0.0    6.12239 }     6.12239
   scf:   28    -3068.211325    -3068.210073    -3068.210075  0.007050 -4.789855  0.064566
     spin moment: {S} , |S| = {        0.0        0.0    6.10398 }     6.10398
   scf:   29    -3068.211195    -3068.210543    -3068.210545  0.005267 -4.785078  0.046224
     spin moment: {S} , |S| = {        0.0        0.0    6.08671 }     6.08671
   scf:   30    -3068.210053    -3068.210257    -3068.210259  0.003586 -4.788910  0.052139
     spin moment: {S} , |S| = {        0.0        0.0    6.09532 }     6.09532
   scf:   31    -3068.211220    -3068.210660    -3068.210663  0.004300 -4.783084  0.042565
     spin moment: {S} , |S| = {        0.0        0.0    6.08650 }     6.08650
   scf:   32    -3068.210570    -3068.210614    -3068.210616  0.000850 -4.784858  0.026987
     spin moment: {S} , |S| = {        0.0        0.0    6.08667 }     6.08667
   scf:   33    -3068.211091    -3068.210784    -3068.210787  0.004099 -4.782974  0.039704
     spin moment: {S} , |S| = {        0.0        0.0    6.07793 }     6.07793
   scf:   34    -3068.210896    -3068.210840    -3068.210843  0.000926 -4.783761  0.031741
     spin moment: {S} , |S| = {        0.0        0.0    6.07781 }     6.07781
   scf:   35    -3068.210936    -3068.210879    -3068.210881  0.001406 -4.783431  0.023150
     spin moment: {S} , |S| = {        0.0        0.0    6.07743 }     6.07743
   scf:   36    -3068.210891    -3068.210881    -3068.210884  0.001884 -4.786467  0.031565
     spin moment: {S} , |S| = {        0.0        0.0    6.08594 }     6.08594
   scf:   37    -3068.211055    -3068.210923    -3068.210925  0.003356 -4.785956  0.020311
     spin moment: {S} , |S| = {        0.0        0.0    6.07785 }     6.07785
   scf:   38    -3068.210914    -3068.210919    -3068.210921  0.000128 -4.785213  0.015594
     spin moment: {S} , |S| = {        0.0        0.0    6.07780 }     6.07780
   scf:   39    -3068.210918    -3068.210920    -3068.210922  0.000127 -4.785076  0.014856
     spin moment: {S} , |S| = {        0.0        0.0    6.07783 }     6.07783
   scf:   40    -3068.210925    -3068.210922    -3068.210923  0.000616 -4.785142  0.013168
     spin moment: {S} , |S| = {        0.0        0.0    6.07785 }     6.07785
   scf:   41    -3068.210943    -3068.210914    -3068.210916  0.001904 -4.785575  0.013588
     spin moment: {S} , |S| = {        0.0        0.0    6.07908 }     6.07908
   scf:   42    -3068.210947    -3068.210930    -3068.210931  0.000310 -4.785685  0.012690
     spin moment: {S} , |S| = {        0.0        0.0    6.07993 }     6.07993
   scf:   43    -3068.210919    -3068.210924    -3068.210925  0.000511 -4.785397  0.014844
     spin moment: {S} , |S| = {        0.0        0.0    6.08069 }     6.08069
   scf:   44    -3068.210963    -3068.210943    -3068.210945  0.000426 -4.785902  0.008277
     spin moment: {S} , |S| = {        0.0        0.0    6.08250 }     6.08250
   scf:   45    -3068.210978    -3068.210959    -3068.210961  0.000727 -4.786940  0.012043
     spin moment: {S} , |S| = {        0.0        0.0    6.08656 }     6.08656
   scf:   46    -3068.210961    -3068.210960    -3068.210962  0.000087 -4.786763  0.013017
     spin moment: {S} , |S| = {        0.0        0.0    6.08643 }     6.08643
   scf:   47    -3068.210976    -3068.210967    -3068.210969  0.000381 -4.786621  0.012687
     spin moment: {S} , |S| = {        0.0        0.0    6.08608 }     6.08608
   scf:   48    -3068.210963    -3068.210965    -3068.210967  0.000151 -4.786619  0.007201
     spin moment: {S} , |S| = {        0.0        0.0    6.08607 }     6.08607
   scf:   49    -3068.210985    -3068.210975    -3068.210976  0.000336 -4.787020  0.008462
     spin moment: {S} , |S| = {        0.0        0.0    6.08655 }     6.08655
   scf:   50    -3068.210987    -3068.210981    -3068.210982  0.000334 -4.787878  0.005820
     spin moment: {S} , |S| = {        0.0        0.0    6.08666 }     6.08666
   scf:   51    -3068.210983    -3068.210982    -3068.210983  0.000101 -4.787616  0.005496
     spin moment: {S} , |S| = {        0.0        0.0    6.08666 }     6.08666
   scf:   52    -3068.210986    -3068.210984    -3068.210985  0.000137 -4.787494  0.005420
     spin moment: {S} , |S| = {        0.0        0.0    6.08665 }     6.08665
   scf:   53    -3068.211015    -3068.210995    -3068.210996  0.000903 -4.788668  0.002359
     spin moment: {S} , |S| = {        0.0        0.0    6.08667 }     6.08667
   scf:   54    -3068.210995    -3068.210995    -3068.210996  0.000094 -4.788954  0.003563
     spin moment: {S} , |S| = {        0.0        0.0    6.08670 }     6.08670
   scf:   55    -3068.210995    -3068.210995    -3068.210996  0.000060 -4.788842  0.002148
     spin moment: {S} , |S| = {        0.0        0.0    6.08669 }     6.08669
   scf:   56    -3068.210996    -3068.210995    -3068.210997  0.000182 -4.789121  0.000897
     spin moment: {S} , |S| = {        0.0        0.0    6.08674 }     6.08674
   scf:   57    -3068.210995    -3068.210995    -3068.210997  0.000121 -4.789325  0.000732
     spin moment: {S} , |S| = {        0.0        0.0    6.08687 }     6.08687
   scf:   58    -3068.210995    -3068.210995    -3068.210997  0.000039 -4.789404  0.000637
     spin moment: {S} , |S| = {        0.0        0.0    6.08696 }     6.08696

SCF Convergence by DM+H criterion
max |DM_out - DM_in|         :     0.0000387995
max |H_out - H_in|      (eV) :     0.0006368213
SCF cycle converged after 58 iterations

Using DM_out to compute the final energy and forces
No. of atoms with KB's overlaping orbs in proc 0. Max # of overlaps:      39     470

siesta: E_KS(eV) =            -3068.2110

siesta: E_KS - E_eggbox =     -3068.2110

siesta: Atomic forces (eV/Ang):
     1    0.193984    0.084696    0.412405
     2    0.194016    0.084704   -0.412827
     3   -0.431181    0.457722    0.000040
     4   -0.234535   -0.243295   -0.495340
     5   -0.234625   -0.243469    0.494193
     6    0.512403   -0.140157    0.000232
----------------------------------------
   Tot    0.000062    0.000202   -0.001298
----------------------------------------
   Max    0.512403
   Res    0.318492    sqrt( Sum f_i^2 / 3N )
----------------------------------------
   Max    0.512403    constrained

Stress tensor Voigt[x,y,z,yz,xz,xy] (kbar):       -0.31        1.75       -3.25       -0.00        0.00        0.57
(Free)E + p*V (eV/cell)    -3068.0433
Target enthalpy (eV/cell)    -3068.2110

mulliken: Atomic and Orbital Populations:

mulliken: Spin UP 

Species: Fe                  
Atom  Qatom  Qorb
               4s      4s      3dxy    3dyz    3dz2    3dxz    3dx2-y2 3dxy    
               3dyz    3dz2    3dxz    3dx2-y2 4Ppy    4Ppz    4Ppx    
   4  5.417   0.265   0.134   1.032   0.978   1.069   0.969   1.032  -0.088
             -0.090  -0.106  -0.088  -0.090   0.130   0.138   0.130
   5  5.417   0.265   0.134   1.032   0.978   1.069   0.969   1.032  -0.088
             -0.090  -0.106  -0.088  -0.090   0.130   0.138   0.130
   6  5.051   0.382   0.065   1.004   1.038   0.810   1.032   1.008  -0.139
             -0.159  -0.068  -0.161  -0.141   0.126   0.127   0.126

Species: Ga                  
Atom  Qatom  Qorb
               4s      4s      4py     4pz     4px     4py     4pz     4px     
               4Pdxy   4Pdyz   4Pdz2   4Pdxz   4Pdx2-y2
   3  0.512   0.309   0.221  -0.887  -0.513  -0.881   0.877   0.515   0.864
              0.001   0.001   0.001   0.002   0.001

Species: Te                  
Atom  Qatom  Qorb
               5s      5s      5py     5pz     5px     5py     5pz     5px     
               5Pdxy   5Pdyz   5Pdz2   5Pdxz   5Pdx2-y2
   1  3.073   0.947   0.010   0.614   0.642   0.606   0.026   0.045   0.031
              0.028   0.033   0.028   0.034   0.028
   2  3.073   0.947   0.010   0.614   0.642   0.606   0.026   0.045   0.031
              0.028   0.033   0.028   0.034   0.028

mulliken: Qtot =       22.543

mulliken: Spin DOWN 

Species: Fe                  
Atom  Qatom  Qorb
               4s      4s      3dxy    3dyz    3dz2    3dxz    3dx2-y2 3dxy    
               3dyz    3dz2    3dxz    3dx2-y2 4Ppy    4Ppz    4Ppx    
   4  2.816   0.259   0.124   0.456   0.501   0.696   0.510   0.481  -0.089
             -0.107  -0.139  -0.107  -0.095   0.104   0.118   0.104
   5  2.816   0.259   0.124   0.456   0.501   0.696   0.510   0.481  -0.089
             -0.107  -0.139  -0.107  -0.095   0.104   0.118   0.104
   6  3.548   0.328   0.102   0.684   0.790   0.555   0.794   0.667  -0.146
             -0.183  -0.096  -0.185  -0.144   0.133   0.117   0.132

Species: Ga                  
Atom  Qatom  Qorb
               4s      4s      4py     4pz     4px     4py     4pz     4px     
               4Pdxy   4Pdyz   4Pdz2   4Pdxz   4Pdx2-y2
   3  0.786   0.423   0.185  -0.889  -0.529  -0.884   0.950   0.585   0.938
              0.001   0.001   0.001   0.002   0.001

Species: Te                  
Atom  Qatom  Qorb
               5s      5s      5py     5pz     5px     5py     5pz     5px     
               5Pdxy   5Pdyz   5Pdz2   5Pdxz   5Pdx2-y2
   1  3.245   0.953   0.009   0.690   0.634   0.682   0.040   0.051   0.045
              0.027   0.036   0.017   0.036   0.027
   2  3.245   0.953   0.009   0.690   0.634   0.682   0.040   0.051   0.045
              0.027   0.036   0.017   0.036   0.027

mulliken: Qtot =       16.457

Mulliken Atomic Populations:
Atom #   charge [q] valence [e]      Sz [e]  Species
     1    -0.318315    6.318315   -0.171799  Te
     2    -0.318300    6.318300   -0.171793  Te
     3     1.702128    1.297872   -0.274223  Ga
     4    -0.233092    8.233092    2.600901  Fe
     5    -0.233135    8.233135    2.600858  Fe
     6    -0.599285    8.599285    1.503012  Fe
-------------------------------------------
 Total    -0.000000                6.086957

cgvc: WARNING: CG file not found

                     ====================================
                        Begin CG opt. move =      1
                     ====================================

outcoor: Atomic coordinates (Ang):                          
    2.37308326    1.75968559   12.70157571   3       1  Te
    2.37308447    1.75968583    7.52012948   3       2  Te
    0.32191699    2.94434640   10.11083611   2       3  Ga
    0.32919824    0.57665146   11.33439916   1       4  Fe
    0.32919494    0.57664504    8.88720414   1       5  Fe
    2.38487439    1.75134909   10.11084158   1       6  Fe

superc: Internal auxiliary supercell:     9 x     9 x     1  =      81
superc: Number of atoms, orbitals, and projectors:    486   6804   7776

outcell: Unit cell vectors (Ang):
        4.142245    0.000000    0.000000
       -2.071122    3.587289    0.000000
        0.000000    0.000000   30.000000

outcell: Cell vector modules (Ang)   :    4.142245    4.142244   30.000000
outcell: Cell angles (23,13,12) (deg):     90.0000     90.0000    120.0000
outcell: Cell volume (Ang**3)        :    445.7829
<dSpData1D:S at geom step 1
  <sparsity:sparsity for geom step 1
    nrows_g=84 nrows=22 sparsity=4.0779 nnzs=28774, refcount: 7>
  <dData1D:(new from dSpData1D) n=28774, refcount: 1>
refcount: 1>
new_DM -- step:     2
Re-using DM from previous geometries...
Number of DMs in history: 1
 DM extrapolation coefficients: 
1   1.00000
New DM after history re-use:
<dSpData2D:SpM extrapolated using coords
  <sparsity:sparsity for geom step 1
    nrows_g=84 nrows=22 sparsity=4.0779 nnzs=28774, refcount: 9>
  <dData2D:(temp array for extrapolation) n=28774 m=2, refcount: 1>
refcount: 1>
No. of atoms with KB's overlaping orbs in proc 0. Max # of overlaps:      39     470

InitMesh: MESH = 80 x 80 x 640 = 4096000
InitMesh: Mesh cutoff (required, used) =  1200.000  1257.823 Ry
New grid distribution [1]: sub = 2
New grid distribution [2]: sub = 2
New grid distribution [3]: sub = 2
Setting up quadratic distribution...

        iscf     Eharris(eV)        E_KS(eV)     FreeEng(eV)     dDmax    Ef(eV) dHmax(eV)
   scf:    1    -3068.057253    -3068.156144    -3068.156146  0.041859 -4.695136  2.378129
     spin moment: {S} , |S| = {        0.0        0.0    6.14447 }     6.14447
   scf:    2    -3004.998918    -3047.594636    -3047.594638  0.227056 -5.765248 35.409085
     spin moment: {S} , |S| = {        0.0        0.0    5.82889 }     5.82889
   scf:    3    -3068.297231    -3068.236597    -3068.236599  0.215138 -4.786920  0.957538
     spin moment: {S} , |S| = {        0.0        0.0    6.11576 }     6.11576
   scf:    4    -3068.250513    -3068.256794    -3068.256796  0.011982 -4.793548  0.143234
     spin moment: {S} , |S| = {        0.0        0.0    6.12155 }     6.12155
   scf:    5    -3068.257693    -3068.257552    -3068.257553  0.001887 -4.794476  0.050564
     spin moment: {S} , |S| = {        0.0        0.0    6.11973 }     6.11973
   scf:    6    -3068.257687    -3068.257684    -3068.257686  0.001010 -4.794084  0.035802
     spin moment: {S} , |S| = {        0.0        0.0    6.11962 }     6.11962
   scf:    7    -3068.257986    -3068.257851    -3068.257853  0.000753 -4.793086  0.033907
     spin moment: {S} , |S| = {        0.0        0.0    6.11992 }     6.11992
   scf:    8    -3068.258285    -3068.258091    -3068.258093  0.001652 -4.789906  0.011222
     spin moment: {S} , |S| = {        0.0        0.0    6.12121 }     6.12121
   scf:    9    -3068.258179    -3068.258139    -3068.258141  0.000691 -4.789309  0.013602
     spin moment: {S} , |S| = {        0.0        0.0    6.12251 }     6.12251
   scf:   10    -3068.258156    -3068.258149    -3068.258151  0.000280 -4.789299  0.013210
     spin moment: {S} , |S| = {        0.0        0.0    6.12304 }     6.12304
   scf:   11    -3068.258178    -3068.258164    -3068.258166  0.000339 -4.789586  0.015493
     spin moment: {S} , |S| = {        0.0        0.0    6.12448 }     6.12448
   scf:   12    -3068.258160    -3068.258162    -3068.258164  0.000089 -4.789558  0.012740
     spin moment: {S} , |S| = {        0.0        0.0    6.12420 }     6.12420
   scf:   13    -3068.258176    -3068.258169    -3068.258172  0.000180 -4.789848  0.014713
     spin moment: {S} , |S| = {        0.0        0.0    6.12499 }     6.12499
   scf:   14    -3068.258256    -3068.258209    -3068.258211  0.000795 -4.793612  0.012346
     spin moment: {S} , |S| = {        0.0        0.0    6.12696 }     6.12696
   scf:   15    -3068.258175    -3068.258192    -3068.258194  0.000629 -4.791130  0.006691
     spin moment: {S} , |S| = {        0.0        0.0    6.12663 }     6.12663
   scf:   16    -3068.258218    -3068.258205    -3068.258208  0.000449 -4.792565  0.008219
     spin moment: {S} , |S| = {        0.0        0.0    6.12686 }     6.12686
   scf:   17    -3068.258205    -3068.258206    -3068.258208  0.000076 -4.792459  0.006386
     spin moment: {S} , |S| = {        0.0        0.0    6.12686 }     6.12686
   scf:   18    -3068.258205    -3068.258206    -3068.258208  0.000043 -4.792412  0.004120
     spin moment: {S} , |S| = {        0.0        0.0    6.12686 }     6.12686
   scf:   19    -3068.258221    -3068.258213    -3068.258215  0.000292 -4.793303  0.004394
     spin moment: {S} , |S| = {        0.0        0.0    6.12711 }     6.12711
   scf:   20    -3068.258228    -3068.258219    -3068.258222  0.000476 -4.794457  0.002147
     spin moment: {S} , |S| = {        0.0        0.0    6.12861 }     6.12861
   scf:   21    -3068.258217    -3068.258218    -3068.258221  0.000206 -4.794217  0.001897
     spin moment: {S} , |S| = {        0.0        0.0    6.12791 }     6.12791
   scf:   22    -3068.258217    -3068.258218    -3068.258221  0.000073 -4.794141  0.002674
     spin moment: {S} , |S| = {        0.0        0.0    6.12778 }     6.12778
   scf:   23    -3068.258222    -3068.258220    -3068.258223  0.000358 -4.794576  0.001699
     spin moment: {S} , |S| = {        0.0        0.0    6.12901 }     6.12901
   scf:   24    -3068.258223    -3068.258221    -3068.258224  0.000223 -4.794760  0.001159
     spin moment: {S} , |S| = {        0.0        0.0    6.12985 }     6.12985
   scf:   25    -3068.258221    -3068.258221    -3068.258224  0.000042 -4.794772  0.001176
     spin moment: {S} , |S| = {        0.0        0.0    6.12998 }     6.12998
   scf:   26    -3068.258221    -3068.258221    -3068.258224  0.000030 -4.794747  0.001166
     spin moment: {S} , |S| = {        0.0        0.0    6.12988 }     6.12988
   scf:   27    -3068.258221    -3068.258221    -3068.258224  0.000003 -4.794748  0.001121
     spin moment: {S} , |S| = {        0.0        0.0    6.12986 }     6.12986
   scf:   28    -3068.258222    -3068.258221    -3068.258224  0.000084 -4.794814  0.001138
     spin moment: {S} , |S| = {        0.0        0.0    6.13018 }     6.13018
   scf:   29    -3068.258222    -3068.258222    -3068.258225  0.000046 -4.794820  0.001442
     spin moment: {S} , |S| = {        0.0        0.0    6.13037 }     6.13037
   scf:   30    -3068.258221    -3068.258221    -3068.258224  0.000052 -4.794756  0.001236
     spin moment: {S} , |S| = {        0.0        0.0    6.13023 }     6.13023
   scf:   31    -3068.258220    -3068.258221    -3068.258224  0.000238 -4.794501  0.001515
     spin moment: {S} , |S| = {        0.0        0.0    6.12945 }     6.12945
   scf:   32    -3068.258222    -3068.258221    -3068.258224  0.000123 -4.794449  0.001398
     spin moment: {S} , |S| = {        0.0        0.0    6.12989 }     6.12989
   scf:   33    -3068.258223    -3068.258222    -3068.258225  0.000166 -4.794513  0.001275
     spin moment: {S} , |S| = {        0.0        0.0    6.13054 }     6.13054
   scf:   34    -3068.258222    -3068.258222    -3068.258225  0.000090 -4.794590  0.001151
     spin moment: {S} , |S| = {        0.0        0.0    6.13087 }     6.13087
   scf:   35    -3068.258223    -3068.258222    -3068.258225  0.000124 -4.794577  0.000796
     spin moment: {S} , |S| = {        0.0        0.0    6.13125 }     6.13125
   scf:   36    -3068.258223    -3068.258223    -3068.258225  0.000008 -4.794594  0.000627
     spin moment: {S} , |S| = {        0.0        0.0    6.13125 }     6.13125

SCF Convergence by DM+H criterion
max |DM_out - DM_in|         :     0.0000079509
max |H_out - H_in|      (eV) :     0.0006265380
SCF cycle converged after 36 iterations

Using DM_out to compute the final energy and forces
No. of atoms with KB's overlaping orbs in proc 0. Max # of overlaps:      39     470

siesta: E_KS(eV) =            -3068.2582

siesta: Atomic forces (eV/Ang):
     1    0.105537    0.039948    0.228102
     2    0.105552    0.039944   -0.228549
     3   -0.061591    0.125944    0.000014
     4   -0.135746   -0.122179   -0.234422
     5   -0.135875   -0.122297    0.235916
     6    0.122104    0.038625   -0.000035
----------------------------------------
   Tot   -0.000019   -0.000016    0.001027
----------------------------------------
   Max    0.235916
   Res    0.138077    sqrt( Sum f_i^2 / 3N )
----------------------------------------
   Max    0.235916    constrained

Stress tensor Voigt[x,y,z,yz,xz,xy] (kbar):        1.06        1.47       -2.21        0.00        0.00       -0.12
(Free)E + p*V (eV/cell)    -3068.2874
Target enthalpy (eV/cell)    -3068.2582

mulliken: Atomic and Orbital Populations:

mulliken: Spin UP 

Species: Fe                  
Atom  Qatom  Qorb
               4s      4s      3dxy    3dyz    3dz2    3dxz    3dx2-y2 3dxy    
               3dyz    3dz2    3dxz    3dx2-y2 4Ppy    4Ppz    4Ppx    
   4  5.418   0.246   0.149   1.033   0.980   1.068   0.975   1.033  -0.088
             -0.090  -0.105  -0.089  -0.089   0.130   0.135   0.131
   5  5.418   0.246   0.149   1.033   0.980   1.068   0.975   1.033  -0.088
             -0.090  -0.105  -0.089  -0.089   0.130   0.135   0.131
   6  5.065   0.371   0.073   1.006   1.042   0.815   1.036   1.007  -0.140
             -0.158  -0.070  -0.159  -0.140   0.127   0.128   0.127

Species: Ga                  
Atom  Qatom  Qorb
               4s      4s      4py     4pz     4px     4py     4pz     4px     
               4Pdxy   4Pdyz   4Pdz2   4Pdxz   4Pdx2-y2
   3  0.522   0.308   0.223  -0.885  -0.511  -0.878   0.876   0.516   0.867
              0.001   0.001   0.001   0.002   0.001

Species: Te                  
Atom  Qatom  Qorb
               5s      5s      5py     5pz     5px     5py     5pz     5px     
               5Pdxy   5Pdyz   5Pdz2   5Pdxz   5Pdx2-y2
   1  3.071   0.948   0.010   0.620   0.641   0.616   0.022   0.043   0.025
              0.027   0.032   0.028   0.033   0.027
   2  3.071   0.948   0.010   0.620   0.641   0.616   0.022   0.043   0.025
              0.027   0.032   0.028   0.033   0.027

mulliken: Qtot =       22.566

mulliken: Spin DOWN 

Species: Fe                  
Atom  Qatom  Qorb
               4s      4s      3dxy    3dyz    3dz2    3dxz    3dx2-y2 3dxy    
               3dyz    3dz2    3dxz    3dx2-y2 4Ppy    4Ppz    4Ppx    
   4  2.803   0.240   0.140   0.463   0.497   0.697   0.503   0.474  -0.091
             -0.107  -0.139  -0.107  -0.094   0.104   0.115   0.105
   5  2.803   0.240   0.140   0.463   0.497   0.697   0.503   0.474  -0.091
             -0.107  -0.139  -0.107  -0.094   0.104   0.115   0.105
   6  3.526   0.315   0.111   0.677   0.789   0.542   0.794   0.669  -0.145
             -0.183  -0.096  -0.184  -0.145   0.133   0.118   0.133

Species: Ga                  
Atom  Qatom  Qorb
               4s      4s      4py     4pz     4px     4py     4pz     4px     
               4Pdxy   4Pdyz   4Pdz2   4Pdxz   4Pdx2-y2
   3  0.798   0.421   0.188  -0.887  -0.526  -0.880   0.952   0.584   0.940
              0.001   0.001   0.001   0.002   0.001

Species: Te                  
Atom  Qatom  Qorb
               5s      5s      5py     5pz     5px     5py     5pz     5px     
               5Pdxy   5Pdyz   5Pdz2   5Pdxz   5Pdx2-y2
   1  3.253   0.953   0.009   0.699   0.637   0.695   0.035   0.049   0.038
              0.026   0.034   0.017   0.035   0.026
   2  3.252   0.953   0.009   0.699   0.637   0.695   0.035   0.049   0.038
              0.026   0.034   0.017   0.035   0.026

mulliken: Qtot =       16.434

Mulliken Atomic Populations:
Atom #   charge [q] valence [e]      Sz [e]  Species
     1    -0.323950    6.323950   -0.181085  Te
     2    -0.323936    6.323936   -0.181061  Te
     3     1.680370    1.319630   -0.276151  Ga
     4    -0.220524    8.220524    2.615304  Fe
     5    -0.220568    8.220568    2.615264  Fe
     6    -0.591392    8.591392    1.538981  Fe
-------------------------------------------
 Total     0.000000                6.131253

                     ====================================
                        Begin CG opt. move =      2
                     ====================================

outcoor: Atomic coordinates (Ang):                          
    2.38456799    1.76469998   12.72599199   3       1  Te
    2.38457112    1.76470073    7.49568820   3       2  Te
    0.29638908    2.97144568   10.11083847   2       3  Ga
    0.31531268    0.56224728   11.30507274   1       4  Fe
    0.31530406    0.56223056    8.91646263   1       5  Fe
    2.41521103    1.74305115   10.11085531   1       6  Fe

superc: Internal auxiliary supercell:     9 x     9 x     1  =      81
superc: Number of atoms, orbitals, and projectors:    486   6804   7776

outcell: Unit cell vectors (Ang):
        4.142245    0.000000    0.000000
       -2.071122    3.587289    0.000000
        0.000000    0.000000   30.000000

outcell: Cell vector modules (Ang)   :    4.142245    4.142244   30.000000
outcell: Cell angles (23,13,12) (deg):     90.0000     90.0000    120.0000
outcell: Cell volume (Ang**3)        :    445.7829
<dSpData1D:S at geom step 2
  <sparsity:sparsity for geom step 2
    nrows_g=84 nrows=22 sparsity=4.0743 nnzs=28748, refcount: 7>
  <dData1D:(new from dSpData1D) n=28748, refcount: 1>
refcount: 1>
new_DM -- step:     3
Re-using DM from previous geometries...
Number of DMs in history: 1
 DM extrapolation coefficients: 
1   1.00000
New DM after history re-use:
<dSpData2D:SpM extrapolated using coords
  <sparsity:sparsity for geom step 2
    nrows_g=84 nrows=22 sparsity=4.0743 nnzs=28748, refcount: 9>
  <dData2D:(temp array for extrapolation) n=28748 m=2, refcount: 1>
refcount: 1>
No. of atoms with KB's overlaping orbs in proc 0. Max # of overlaps:      39     471

InitMesh: MESH = 80 x 80 x 640 = 4096000
InitMesh: Mesh cutoff (required, used) =  1200.000  1257.823 Ry
New grid distribution [1]: sub = 2
New grid distribution [2]: sub = 2
New grid distribution [3]: sub = 2
Setting up quadratic distribution...

        iscf     Eharris(eV)        E_KS(eV)     FreeEng(eV)     dDmax    Ef(eV) dHmax(eV)
   scf:    1    -3067.640376    -3067.994868    -3067.994872  0.054375 -4.657323  3.668027
     spin moment: {S} , |S| = {        0.0        0.0    6.24271 }     6.24271
   scf:    2    -2934.385627    -3024.620315    -3024.620317  0.334941 -6.399347 51.537829
     spin moment: {S} , |S| = {        0.0        0.0    5.47937 }     5.47937
   scf:    3    -3069.561507    -3068.231237    -3068.231239  0.314107 -4.803663  0.998638
     spin moment: {S} , |S| = {        0.0        0.0    6.18416 }     6.18416
   scf:    4    -3068.239379    -3068.248980    -3068.248981  0.012225 -4.811957  0.203739
     spin moment: {S} , |S| = {        0.0        0.0    6.18341 }     6.18341
   scf:    5    -3068.226350    -3068.244898    -3068.244900  0.010575 -4.817413  0.344583
     spin moment: {S} , |S| = {        0.0        0.0    6.17117 }     6.17117
   scf:    6    -3068.254093    -3068.251856    -3068.251859  0.006571 -4.805220  0.099095
     spin moment: {S} , |S| = {        0.0        0.0    6.18379 }     6.18379
   scf:    7    -3068.250961    -3068.251800    -3068.251802  0.002012 -4.807368  0.073676
     spin moment: {S} , |S| = {        0.0        0.0    6.18373 }     6.18373
   scf:    8    -3068.252537    -3068.252289    -3068.252292  0.002238 -4.803744  0.028572
     spin moment: {S} , |S| = {        0.0        0.0    6.18444 }     6.18444
   scf:    9    -3068.252245    -3068.252277    -3068.252280  0.000447 -4.804143  0.024258
     spin moment: {S} , |S| = {        0.0        0.0    6.18444 }     6.18444
   scf:   10    -3068.252414    -3068.252350    -3068.252353  0.000770 -4.803635  0.015276
     spin moment: {S} , |S| = {        0.0        0.0    6.18444 }     6.18444
   scf:   11    -3068.252381    -3068.252366    -3068.252368  0.000188 -4.804050  0.016934
     spin moment: {S} , |S| = {        0.0        0.0    6.18444 }     6.18444
   scf:   12    -3068.252449    -3068.252407    -3068.252409  0.000645 -4.806137  0.011777
     spin moment: {S} , |S| = {        0.0        0.0    6.18444 }     6.18444
   scf:   13    -3068.252385    -3068.252399    -3068.252401  0.000225 -4.805279  0.016911
     spin moment: {S} , |S| = {        0.0        0.0    6.18444 }     6.18444
   scf:   14    -3068.252511    -3068.252451    -3068.252453  0.001202 -4.808609  0.008642
     spin moment: {S} , |S| = {        0.0        0.0    6.18444 }     6.18444
   scf:   15    -3068.252462    -3068.252457    -3068.252459  0.000296 -4.809268  0.007888
     spin moment: {S} , |S| = {        0.0        0.0    6.18444 }     6.18444
   scf:   16    -3068.252460    -3068.252459    -3068.252461  0.000144 -4.809288  0.003752
     spin moment: {S} , |S| = {        0.0        0.0    6.18444 }     6.18444
   scf:   17    -3068.252463    -3068.252461    -3068.252463  0.000105 -4.809222  0.003552
     spin moment: {S} , |S| = {        0.0        0.0    6.18444 }     6.18444
   scf:   18    -3068.252458    -3068.252460    -3068.252461  0.000081 -4.808960  0.003791
     spin moment: {S} , |S| = {        0.0        0.0    6.18444 }     6.18444
   scf:   19    -3068.252464    -3068.252462    -3068.252464  0.000150 -4.808879  0.002821
     spin moment: {S} , |S| = {        0.0        0.0    6.18444 }     6.18444
   scf:   20    -3068.252465    -3068.252463    -3068.252465  0.000139 -4.808539  0.002334
     spin moment: {S} , |S| = {        0.0        0.0    6.18444 }     6.18444
   scf:   21    -3068.252467    -3068.252465    -3068.252467  0.000228 -4.808599  0.003513
     spin moment: {S} , |S| = {        0.0        0.0    6.18444 }     6.18444
   scf:   22    -3068.252465    -3068.252465    -3068.252467  0.000030 -4.808498  0.002111
     spin moment: {S} , |S| = {        0.0        0.0    6.18444 }     6.18444
   scf:   23    -3068.252469    -3068.252467    -3068.252469  0.000378 -4.808842  0.001484
     spin moment: {S} , |S| = {        0.0        0.0    6.18444 }     6.18444
   scf:   24    -3068.252467    -3068.252467    -3068.252469  0.000061 -4.808905  0.000798
     spin moment: {S} , |S| = {        0.0        0.0    6.18444 }     6.18444

SCF Convergence by DM+H criterion
max |DM_out - DM_in|         :     0.0000606203
max |H_out - H_in|      (eV) :     0.0007984653
SCF cycle converged after 24 iterations

Using DM_out to compute the final energy and forces
No. of atoms with KB's overlaping orbs in proc 0. Max # of overlaps:      39     471

siesta: E_KS(eV) =            -3068.2525

siesta: Atomic forces (eV/Ang):
     1   -0.004511   -0.013745   -0.051831
     2   -0.004538   -0.013806    0.051497
     3    0.462789   -0.343526   -0.000050
     4   -0.004061    0.034235    0.233885
     5   -0.003729    0.034419   -0.234023
     6   -0.445806    0.302255   -0.000619
----------------------------------------
   Tot    0.000145   -0.000169   -0.001140
----------------------------------------
   Max    0.462789
   Res    0.202745    sqrt( Sum f_i^2 / 3N )
----------------------------------------
   Max    0.462789    constrained

Stress tensor Voigt[x,y,z,yz,xz,xy] (kbar):        2.34        0.38       -1.06       -0.00        0.00       -1.30
(Free)E + p*V (eV/cell)    -3068.4065
Target enthalpy (eV/cell)    -3068.2525

mulliken: Atomic and Orbital Populations:

mulliken: Spin UP 

Species: Fe                  
Atom  Qatom  Qorb
               4s      4s      3dxy    3dyz    3dz2    3dxz    3dx2-y2 3dxy    
               3dyz    3dz2    3dxz    3dx2-y2 4Ppy    4Ppz    4Ppx    
   4  5.417   0.215   0.175   1.034   0.982   1.066   0.983   1.034  -0.088
             -0.090  -0.105  -0.091  -0.088   0.131   0.128   0.131
   5  5.417   0.215   0.175   1.034   0.982   1.066   0.983   1.034  -0.088
             -0.090  -0.105  -0.091  -0.088   0.131   0.128   0.131
   6  5.078   0.345   0.089   1.008   1.048   0.822   1.043   1.005  -0.141
             -0.158  -0.072  -0.156  -0.139   0.127   0.129   0.127

Species: Ga                  
Atom  Qatom  Qorb
               4s      4s      4py     4pz     4px     4py     4pz     4px     
               4Pdxy   4Pdyz   4Pdz2   4Pdxz   4Pdx2-y2
   3  0.543   0.307   0.225  -0.876  -0.501  -0.864   0.872   0.512   0.862
              0.001   0.002   0.001   0.002   0.001

Species: Te                  
Atom  Qatom  Qorb
               5s      5s      5py     5pz     5px     5py     5pz     5px     
               5Pdxy   5Pdyz   5Pdz2   5Pdxz   5Pdx2-y2
   1  3.068   0.948   0.011   0.629   0.640   0.630   0.016   0.039   0.015
              0.025   0.031   0.027   0.031   0.025
   2  3.068   0.948   0.011   0.629   0.640   0.630   0.016   0.039   0.015
              0.025   0.031   0.027   0.031   0.025

mulliken: Qtot =       22.592

mulliken: Spin DOWN 

Species: Fe                  
Atom  Qatom  Qorb
               4s      4s      3dxy    3dyz    3dz2    3dxz    3dx2-y2 3dxy    
               3dyz    3dz2    3dxz    3dx2-y2 4Ppy    4Ppz    4Ppx    
   4  2.783   0.210   0.165   0.474   0.493   0.697   0.493   0.464  -0.093
             -0.107  -0.136  -0.106  -0.092   0.106   0.108   0.106
   5  2.783   0.210   0.165   0.474   0.493   0.697   0.493   0.464  -0.093
             -0.107  -0.136  -0.106  -0.092   0.106   0.108   0.106
   6  3.494   0.286   0.129   0.666   0.793   0.523   0.795   0.670  -0.145
             -0.185  -0.096  -0.183  -0.145   0.133   0.118   0.134

Species: Ga                  
Atom  Qatom  Qorb
               4s      4s      4py     4pz     4px     4py     4pz     4px     
               4Pdxy   4Pdyz   4Pdz2   4Pdxz   4Pdx2-y2
   3  0.822   0.420   0.192  -0.880  -0.516  -0.863   0.950   0.578   0.935
              0.001   0.002   0.001   0.002   0.001

Species: Te                  
Atom  Qatom  Qorb
               5s      5s      5py     5pz     5px     5py     5pz     5px     
               5Pdxy   5Pdyz   5Pdz2   5Pdxz   5Pdx2-y2
   1  3.263   0.954   0.010   0.712   0.641   0.714   0.028   0.047   0.028
              0.024   0.032   0.017   0.032   0.024
   2  3.263   0.954   0.010   0.712   0.641   0.713   0.029   0.047   0.028
              0.024   0.032   0.017   0.032   0.024

mulliken: Qtot =       16.408

Mulliken Atomic Populations:
Atom #   charge [q] valence [e]      Sz [e]  Species
     1    -0.330911    6.330911   -0.195253  Te
     2    -0.330902    6.330902   -0.195199  Te
     3     1.634786    1.365214   -0.278925  Ga
     4    -0.199995    8.199995    2.634923  Fe
     5    -0.200036    8.200036    2.634898  Fe
     6    -0.572942    8.572942    1.584000  Fe
-------------------------------------------
 Total     0.000000                6.184444

                     ====================================
                        Begin CG opt. move =      3
                     ====================================

outcoor: Atomic coordinates (Ang):                          
    2.37817550    1.76190893   12.71240170   3       1  Te
    2.37817756    1.76190940    7.50929240   3       2  Te
    0.31059811    2.95636201   10.11083715   2       3  Ga
    0.32304149    0.57026476   11.32139605   1       4  Fe
    0.32303583    0.57025377    8.90017713   1       5  Fe
    2.39832543    1.74766985   10.11084767   1       6  Fe

superc: Internal auxiliary supercell:     9 x     9 x     1  =      81
superc: Number of atoms, orbitals, and projectors:    486   6804   7776

outcell: Unit cell vectors (Ang):
        4.142245    0.000000    0.000000
       -2.071122    3.587289    0.000000
        0.000000    0.000000   30.000000

outcell: Cell vector modules (Ang)   :    4.142245    4.142244   30.000000
outcell: Cell angles (23,13,12) (deg):     90.0000     90.0000    120.0000
outcell: Cell volume (Ang**3)        :    445.7829
<dSpData1D:S at geom step 3
  <sparsity:sparsity for geom step 3
    nrows_g=84 nrows=22 sparsity=4.0609 nnzs=28654, refcount: 7>
  <dData1D:(new from dSpData1D) n=28654, refcount: 1>
refcount: 1>
new_DM -- step:     4
Re-using DM from previous geometries...
Number of DMs in history: 1
 DM extrapolation coefficients: 
1   1.00000
New DM after history re-use:
<dSpData2D:SpM extrapolated using coords
  <sparsity:sparsity for geom step 3
    nrows_g=84 nrows=22 sparsity=4.0609 nnzs=28654, refcount: 9>
  <dData2D:(temp array for extrapolation) n=28654 m=2, refcount: 1>
refcount: 1>
No. of atoms with KB's overlaping orbs in proc 0. Max # of overlaps:      39     470

InitMesh: MESH = 80 x 80 x 640 = 4096000
InitMesh: Mesh cutoff (required, used) =  1200.000  1257.823 Ry
New grid distribution [1]: sub = 2
New grid distribution [2]: sub = 2
New grid distribution [3]: sub = 2
Setting up quadratic distribution...

        iscf     Eharris(eV)        E_KS(eV)     FreeEng(eV)     dDmax    Ef(eV) dHmax(eV)
   scf:    1    -3067.975904    -3068.196935    -3068.196937  0.032858 -4.881934  1.932825
     spin moment: {S} , |S| = {        0.0        0.0    6.13532 }     6.13532
   scf:    2    -3018.630599    -3052.004102    -3052.004105  0.225290 -3.879294 30.993520
     spin moment: {S} , |S| = {        0.0        0.0    6.36119 }     6.36119
   scf:    3    -3067.563687    -3068.221504    -3068.221505  0.234568 -4.802250  1.294979
     spin moment: {S} , |S| = {        0.0        0.0    6.16668 }     6.16668
   scf:    4    -3068.273714    -3068.266749    -3068.266751  0.014483 -4.798493  0.078726
     spin moment: {S} , |S| = {        0.0        0.0    6.16219 }     6.16219
   scf:    5    -3068.267124    -3068.267059    -3068.267063  0.001617 -4.800444  0.060352
     spin moment: {S} , |S| = {        0.0        0.0    6.15980 }     6.15980
   scf:    6    -3068.267286    -3068.267221    -3068.267224  0.000871 -4.801298  0.025299
     spin moment: {S} , |S| = {        0.0        0.0    6.15887 }     6.15887
   scf:    7    -3068.267523    -3068.267386    -3068.267389  0.001035 -4.802371  0.025902
     spin moment: {S} , |S| = {        0.0        0.0    6.15789 }     6.15789
   scf:    8    -3068.267662    -3068.267549    -3068.267552  0.001532 -4.804580  0.011518
     spin moment: {S} , |S| = {        0.0        0.0    6.15445 }     6.15445
   scf:    9    -3068.267576    -3068.267563    -3068.267566  0.000330 -4.804799  0.011368
     spin moment: {S} , |S| = {        0.0        0.0    6.15314 }     6.15314
   scf:   10    -3068.267600    -3068.267582    -3068.267585  0.000362 -4.805104  0.008253
     spin moment: {S} , |S| = {        0.0        0.0    6.15124 }     6.15124
   scf:   11    -3068.267598    -3068.267591    -3068.267593  0.000266 -4.804734  0.011680
     spin moment: {S} , |S| = {        0.0        0.0    6.15018 }     6.15018
   scf:   12    -3068.267609    -3068.267600    -3068.267603  0.000257 -4.804414  0.008717
     spin moment: {S} , |S| = {        0.0        0.0    6.14924 }     6.14924
   scf:   13    -3068.267593    -3068.267597    -3068.267600  0.000118 -4.804578  0.008824
     spin moment: {S} , |S| = {        0.0        0.0    6.14947 }     6.14947
   scf:   14    -3068.267623    -3068.267610    -3068.267612  0.000296 -4.803604  0.007785
     spin moment: {S} , |S| = {        0.0        0.0    6.14891 }     6.14891
   scf:   15    -3068.267617    -3068.267614    -3068.267616  0.000117 -4.803321  0.004373
     spin moment: {S} , |S| = {        0.0        0.0    6.14889 }     6.14889
   scf:   16    -3068.267623    -3068.267618    -3068.267621  0.000171 -4.802770  0.004563
     spin moment: {S} , |S| = {        0.0        0.0    6.14888 }     6.14888
   scf:   17    -3068.267621    -3068.267620    -3068.267622  0.000076 -4.802542  0.003515
     spin moment: {S} , |S| = {        0.0        0.0    6.14887 }     6.14887
   scf:   18    -3068.267621    -3068.267620    -3068.267623  0.000059 -4.802456  0.004376
     spin moment: {S} , |S| = {        0.0        0.0    6.14887 }     6.14887
   scf:   19    -3068.267631    -3068.267625    -3068.267627  0.000401 -4.801236  0.001340
     spin moment: {S} , |S| = {        0.0        0.0    6.14877 }     6.14877
   scf:   20    -3068.267625    -3068.267625    -3068.267627  0.000033 -4.801146  0.001652
     spin moment: {S} , |S| = {        0.0        0.0    6.14875 }     6.14875
   scf:   21    -3068.267625    -3068.267625    -3068.267627  0.000033 -4.801299  0.000952
     spin moment: {S} , |S| = {        0.0        0.0    6.14878 }     6.14878

SCF Convergence by DM+H criterion
max |DM_out - DM_in|         :     0.0000334606
max |H_out - H_in|      (eV) :     0.0009520501
SCF cycle converged after 21 iterations

Using DM_out to compute the final energy and forces
No. of atoms with KB's overlaping orbs in proc 0. Max # of overlaps:      39     470

siesta: E_KS(eV) =            -3068.2676

siesta: Atomic forces (eV/Ang):
     1    0.052723    0.013760    0.100304
     2    0.052714    0.013732   -0.100595
     3    0.176812   -0.084479   -0.000055
     4   -0.068004   -0.052306   -0.036478
     5   -0.067941   -0.052041    0.037091
     6   -0.146383    0.161310   -0.000436
----------------------------------------
   Tot   -0.000080   -0.000024   -0.000169
----------------------------------------
   Max    0.176812
   Res    0.084773    sqrt( Sum f_i^2 / 3N )
----------------------------------------
   Max    0.176812    constrained

Stress tensor Voigt[x,y,z,yz,xz,xy] (kbar):        1.85        1.09       -1.58        0.00       -0.00       -0.68
(Free)E + p*V (eV/cell)    -3068.3945
Target enthalpy (eV/cell)    -3068.2676

mulliken: Atomic and Orbital Populations:

mulliken: Spin UP 

Species: Fe                  
Atom  Qatom  Qorb
               4s      4s      3dxy    3dyz    3dz2    3dxz    3dx2-y2 3dxy    
               3dyz    3dz2    3dxz    3dx2-y2 4Ppy    4Ppz    4Ppx    
   4  5.417   0.232   0.161   1.033   0.981   1.067   0.978   1.033  -0.088
             -0.090  -0.105  -0.090  -0.088   0.130   0.132   0.131
[...]
     spin moment: {S} , |S| = {        0.0        0.0    6.17383 }     6.17383
   scf:    5    -3068.272198    -3068.272196    -3068.272199  0.000269 -4.809113  0.003602
     spin moment: {S} , |S| = {        0.0        0.0    6.17381 }     6.17381
   scf:    6    -3068.272196    -3068.272196    -3068.272200  0.000051 -4.809140  0.003635
     spin moment: {S} , |S| = {        0.0        0.0    6.17361 }     6.17361
   scf:    7    -3068.272198    -3068.272197    -3068.272201  0.000090 -4.809160  0.001043
     spin moment: {S} , |S| = {        0.0        0.0    6.17337 }     6.17337
   scf:    8    -3068.272198    -3068.272198    -3068.272201  0.000023 -4.809130  0.001024
     spin moment: {S} , |S| = {        0.0        0.0    6.17324 }     6.17324
   scf:    9    -3068.272198    -3068.272198    -3068.272201  0.000028 -4.809092  0.001669
     spin moment: {S} , |S| = {        0.0        0.0    6.17310 }     6.17310
   scf:   10    -3068.272198    -3068.272198    -3068.272201  0.000035 -4.809055  0.001554
     spin moment: {S} , |S| = {        0.0        0.0    6.17294 }     6.17294
   scf:   11    -3068.272198    -3068.272198    -3068.272201  0.000014 -4.809061  0.000679
     spin moment: {S} , |S| = {        0.0        0.0    6.17296 }     6.17296

SCF Convergence by DM+H criterion
max |DM_out - DM_in|         :     0.0000143472
max |H_out - H_in|      (eV) :     0.0006791604
SCF cycle converged after 11 iterations

Using DM_out to compute the final energy and forces
No. of atoms with KB's overlaping orbs in proc 0. Max # of overlaps:      39     454

siesta: E_KS(eV) =            -3068.2722

siesta: Atomic forces (eV/Ang):
     1   -0.000796    0.002822   -0.002712
     2   -0.000837    0.002826    0.002392
     3   -0.025689    0.002780    0.000012
     4   -0.002503   -0.001821    0.008423
     5   -0.002393   -0.001845   -0.008857
     6    0.032001   -0.004586    0.000431
----------------------------------------
   Tot   -0.000217    0.000175   -0.000311
----------------------------------------
   Max    0.032001
   Res    0.010305    sqrt( Sum f_i^2 / 3N )
----------------------------------------
   Max    0.032001    constrained

Stress tensor Voigt[x,y,z,yz,xz,xy] (kbar):        1.77        1.81       -0.05       -0.00        0.00        0.09
(Free)E + p*V (eV/cell)    -3068.5995
Target enthalpy (eV/cell)    -3068.2722

mulliken: Atomic and Orbital Populations:

mulliken: Spin UP 

Species: Fe                  
Atom  Qatom  Qorb
               4s      4s      3dxy    3dyz    3dz2    3dxz    3dx2-y2 3dxy    
               3dyz    3dz2    3dxz    3dx2-y2 4Ppy    4Ppz    4Ppx    
   4  5.418   0.223   0.167   1.033   0.980   1.067   0.980   1.033  -0.088
             -0.090  -0.105  -0.090  -0.088   0.131   0.132   0.131
   5  5.418   0.223   0.167   1.033   0.980   1.067   0.980   1.033  -0.088
             -0.090  -0.105  -0.090  -0.088   0.131   0.132   0.131
   6  5.075   0.351   0.086   1.006   1.043   0.821   1.043   1.006  -0.139
             -0.157  -0.072  -0.157  -0.139   0.127   0.130   0.127

Species: Ga                  
Atom  Qatom  Qorb
               4s      4s      4py     4pz     4px     4py     4pz     4px     
               4Pdxy   4Pdyz   4Pdz2   4Pdxz   4Pdx2-y2
   3  0.537   0.309   0.223  -0.872  -0.508  -0.872   0.868   0.515   0.868
              0.001   0.002   0.001   0.002   0.001

Species: Te                  
Atom  Qatom  Qorb
               5s      5s      5py     5pz     5px     5py     5pz     5px     
               5Pdxy   5Pdyz   5Pdz2   5Pdxz   5Pdx2-y2
   1  3.069   0.948   0.011   0.627   0.641   0.627   0.018   0.039   0.018
              0.026   0.031   0.027   0.031   0.026
   2  3.069   0.948   0.011   0.627   0.641   0.627   0.018   0.039   0.018
              0.026   0.031   0.027   0.031   0.026

mulliken: Qtot =       22.586

mulliken: Spin DOWN 

Species: Fe                  
Atom  Qatom  Qorb
               4s      4s      3dxy    3dyz    3dz2    3dxz    3dx2-y2 3dxy    
               3dyz    3dz2    3dxz    3dx2-y2 4Ppy    4Ppz    4Ppx    
   4  2.787   0.217   0.158   0.468   0.494   0.698   0.495   0.468  -0.092
             -0.106  -0.138  -0.106  -0.092   0.106   0.112   0.106
   5  2.787   0.217   0.158   0.468   0.494   0.698   0.495   0.468  -0.092
             -0.106  -0.138  -0.106  -0.092   0.106   0.112   0.106
   6  3.503   0.292   0.126   0.670   0.792   0.528   0.792   0.671  -0.145
             -0.183  -0.096  -0.183  -0.145   0.133   0.119   0.133

Species: Ga                  
Atom  Qatom  Qorb
               4s      4s      4py     4pz     4px     4py     4pz     4px     
               4Pdxy   4Pdyz   4Pdz2   4Pdxz   4Pdx2-y2
   3  0.817   0.423   0.189  -0.874  -0.523  -0.875   0.944   0.582   0.945
              0.001   0.002   0.001   0.002   0.001

Species: Te                  
Atom  Qatom  Qorb
               5s      5s      5py     5pz     5px     5py     5pz     5px     
               5Pdxy   5Pdyz   5Pdz2   5Pdxz   5Pdx2-y2
   1  3.260   0.954   0.010   0.709   0.640   0.708   0.030   0.047   0.031
              0.024   0.033   0.017   0.033   0.024
   2  3.260   0.954   0.010   0.709   0.640   0.708   0.030   0.047   0.031
              0.024   0.033   0.017   0.033   0.024

mulliken: Qtot =       16.414

Mulliken Atomic Populations:
Atom #   charge [q] valence [e]      Sz [e]  Species
     1    -0.329502    6.329502   -0.190808  Te
     2    -0.329524    6.329524   -0.190855  Te
     3     1.646188    1.353812   -0.279950  Ga
     4    -0.205039    8.205039    2.631250  Fe
     5    -0.205024    8.205024    2.631261  Fe
     6    -0.577099    8.577099    1.572064  Fe
-------------------------------------------
 Total     0.000000                6.172962

                     ====================================
                        Begin CG opt. move =     11
                     ====================================

outcoor: Atomic coordinates (Ang):                          
    2.38726965    1.76086636   12.72368871   3       1  Te
    2.38729005    1.76085768    7.49792009   3       2  Te
    0.31672421    2.95634411   10.11081983   2       3  Ga
    0.31621215    0.56486646   11.32024495   1       4  Fe
    0.31623591    0.56485176    8.90142326   1       5  Fe
    2.38755915    1.76062062   10.11079596   1       6  Fe

superc: Internal auxiliary supercell:     9 x     9 x     1  =      81
superc: Number of atoms, orbitals, and projectors:    486   6804   7776

outcell: Unit cell vectors (Ang):
        4.142245    0.000000    0.000000
       -2.071122    3.587289    0.000000
        0.000000    0.000000   30.000000

outcell: Cell vector modules (Ang)   :    4.142245    4.142244   30.000000
outcell: Cell angles (23,13,12) (deg):     90.0000     90.0000    120.0000
outcell: Cell volume (Ang**3)        :    445.7829
<dSpData1D:S at geom step 11
  <sparsity:sparsity for geom step 11
    nrows_g=84 nrows=22 sparsity=3.9943 nnzs=28184, refcount: 7>
  <dData1D:(new from dSpData1D) n=28184, refcount: 1>
refcount: 1>
new_DM -- step:    12
Re-using DM from previous geometries...
Number of DMs in history: 1
 DM extrapolation coefficients: 
1   1.00000
New DM after history re-use:
<dSpData2D:SpM extrapolated using coords
  <sparsity:sparsity for geom step 11
    nrows_g=84 nrows=22 sparsity=3.9943 nnzs=28184, refcount: 9>
  <dData2D:(temp array for extrapolation) n=28184 m=2, refcount: 1>
refcount: 1>
No. of atoms with KB's overlaping orbs in proc 0. Max # of overlaps:      39     454

InitMesh: MESH = 80 x 80 x 640 = 4096000
InitMesh: Mesh cutoff (required, used) =  1200.000  1257.823 Ry
New grid distribution [1]: sub = 2
New grid distribution [2]: sub = 2
New grid distribution [3]: sub = 2
Setting up quadratic distribution...

        iscf     Eharris(eV)        E_KS(eV)     FreeEng(eV)     dDmax    Ef(eV) dHmax(eV)
   scf:    1    -3068.274539    -3068.272192    -3068.272196  0.002259 -4.810095  0.051456
     spin moment: {S} , |S| = {        0.0        0.0    6.17540 }     6.17540
   scf:    2    -3068.190610    -3068.245390    -3068.245393  0.010976 -4.793445  1.024812
     spin moment: {S} , |S| = {        0.0        0.0    6.17504 }     6.17504
   scf:    3    -3068.272089    -3068.272227    -3068.272230  0.010726 -4.808948  0.021118
     spin moment: {S} , |S| = {        0.0        0.0    6.17549 }     6.17549
   scf:    4    -3068.272234    -3068.272240    -3068.272244  0.000372 -4.808916  0.012967
     spin moment: {S} , |S| = {        0.0        0.0    6.17550 }     6.17550
   scf:    5    -3068.272247    -3068.272246    -3068.272250  0.000164 -4.808829  0.001827
     spin moment: {S} , |S| = {        0.0        0.0    6.17550 }     6.17550
   scf:    6    -3068.272246    -3068.272246    -3068.272250  0.000043 -4.808867  0.002235
     spin moment: {S} , |S| = {        0.0        0.0    6.17551 }     6.17551
   scf:    7    -3068.272247    -3068.272247    -3068.272250  0.000054 -4.808894  0.000741
     spin moment: {S} , |S| = {        0.0        0.0    6.17552 }     6.17552

SCF Convergence by DM+H criterion
max |DM_out - DM_in|         :     0.0000539823
max |H_out - H_in|      (eV) :     0.0007411005
SCF cycle converged after 7 iterations

Using DM_out to compute the final energy and forces
No. of atoms with KB's overlaping orbs in proc 0. Max # of overlaps:      39     454

siesta: E_KS(eV) =            -3068.2722

siesta: Atomic forces (eV/Ang):
     1    0.000557   -0.000856   -0.004689
     2    0.000566   -0.000876    0.004762
     3   -0.004717    0.000711   -0.000049
     4    0.001149    0.000655    0.001358
     5    0.001170    0.000663   -0.001406
     6    0.001087   -0.000184   -0.000110
----------------------------------------
   Tot   -0.000188    0.000113   -0.000134
----------------------------------------
   Max    0.004762
   Res    0.002084    sqrt( Sum f_i^2 / 3N )
----------------------------------------
   Max    0.004762    constrained

Stress tensor Voigt[x,y,z,yz,xz,xy] (kbar):        1.80        1.80        0.06       -0.00        0.00        0.01
(Free)E + p*V (eV/cell)    -3068.6116
Target enthalpy (eV/cell)    -3068.2723

mulliken: Atomic and Orbital Populations:

mulliken: Spin UP 

Species: Fe                  
Atom  Qatom  Qorb
               4s      4s      3dxy    3dyz    3dz2    3dxz    3dx2-y2 3dxy    
               3dyz    3dz2    3dxz    3dx2-y2 4Ppy    4Ppz    4Ppx    
   4  5.418   0.223   0.167   1.033   0.980   1.067   0.980   1.033  -0.088
             -0.090  -0.105  -0.090  -0.088   0.131   0.132   0.131
   5  5.418   0.223   0.167   1.033   0.980   1.067   0.980   1.033  -0.088
             -0.090  -0.105  -0.090  -0.088   0.131   0.132   0.131
   6  5.075   0.350   0.086   1.006   1.043   0.821   1.043   1.006  -0.139
             -0.157  -0.072  -0.157  -0.139   0.127   0.130   0.127

Species: Ga                  
Atom  Qatom  Qorb
               4s      4s      4py     4pz     4px     4py     4pz     4px     
               4Pdxy   4Pdyz   4Pdz2   4Pdxz   4Pdx2-y2
   3  0.537   0.309   0.223  -0.872  -0.508  -0.872   0.868   0.515   0.868
              0.001   0.002   0.001   0.002   0.001

Species: Te                  
Atom  Qatom  Qorb
               5s      5s      5py     5pz     5px     5py     5pz     5px     
               5Pdxy   5Pdyz   5Pdz2   5Pdxz   5Pdx2-y2
   1  3.070   0.948   0.011   0.627   0.641   0.627   0.018   0.039   0.018
              0.026   0.031   0.027   0.031   0.026
   2  3.070   0.948   0.011   0.627   0.641   0.627   0.018   0.039   0.018
              0.026   0.031   0.027   0.031   0.026

mulliken: Qtot =       22.588

mulliken: Spin DOWN 

Species: Fe                  
Atom  Qatom  Qorb
               4s      4s      3dxy    3dyz    3dz2    3dxz    3dx2-y2 3dxy    
               3dyz    3dz2    3dxz    3dx2-y2 4Ppy    4Ppz    4Ppx    
   4  2.786   0.217   0.158   0.468   0.495   0.698   0.495   0.468  -0.092
             -0.106  -0.138  -0.106  -0.092   0.106   0.112   0.106
   5  2.786   0.217   0.158   0.468   0.495   0.698   0.495   0.468  -0.092
             -0.106  -0.138  -0.106  -0.092   0.106   0.112   0.106
   6  3.502   0.291   0.127   0.671   0.791   0.528   0.791   0.671  -0.145
             -0.183  -0.096  -0.183  -0.145   0.133   0.119   0.133

Species: Ga                  
Atom  Qatom  Qorb
               4s      4s      4py     4pz     4px     4py     4pz     4px     
               4Pdxy   4Pdyz   4Pdz2   4Pdxz   4Pdx2-y2
   3  0.817   0.423   0.189  -0.874  -0.523  -0.874   0.944   0.582   0.944
              0.001   0.002   0.001   0.002   0.001

Species: Te                  
Atom  Qatom  Qorb
               5s      5s      5py     5pz     5px     5py     5pz     5px     
               5Pdxy   5Pdyz   5Pdz2   5Pdxz   5Pdx2-y2
   1  3.260   0.954   0.010   0.708   0.640   0.709   0.031   0.047   0.030
              0.024   0.033   0.017   0.033   0.024
   2  3.260   0.954   0.010   0.708   0.640   0.709   0.030   0.047   0.030
              0.024   0.033   0.017   0.033   0.024

mulliken: Qtot =       16.412

Mulliken Atomic Populations:
Atom #   charge [q] valence [e]      Sz [e]  Species
     1    -0.329612    6.329612   -0.190527  Te
     2    -0.329623    6.329623   -0.190551  Te
     3     1.645947    1.354053   -0.279952  Ga
     4    -0.204918    8.204918    2.631999  Fe
     5    -0.204892    8.204892    2.632018  Fe
     6    -0.576902    8.576902    1.572530  Fe
-------------------------------------------
 Total     0.000000                6.175517

outcoor: Relaxed atomic coordinates (Ang):                  
    2.38726965    1.76086636   12.72368871   3       1  Te
    2.38729005    1.76085768    7.49792009   3       2  Te
    0.31672421    2.95634411   10.11081983   2       3  Ga
    0.31621215    0.56486646   11.32024495   1       4  Fe
    0.31623591    0.56485176    8.90142326   1       5  Fe
    2.38755915    1.76062062   10.11079596   1       6  Fe

siesta: Program's energy decomposition (eV):
siesta: Ebs     =      -323.687187
siesta: Eions   =      3245.743898
siesta: Ena     =       493.366765
siesta: Ekin    =      3540.142282
siesta: Enl     =     -2401.949119
siesta: Eso     =         0.000000
siesta: Edftu   =         0.000000
siesta: DEna    =         1.428871
siesta: DUscf   =         0.877483
siesta: DUext   =         0.000000
siesta: Ex      =     -1369.342780
siesta: Ec      =       -87.051850
siesta: Exc     =     -1456.394631
siesta: EbV     =         0.000000
siesta: eta*DQ  =         0.000000
siesta: Emadel  =         0.000000
siesta: Emeta   =         0.000000
siesta: Emolmec =         0.000000
siesta: Ekinion =         0.000000
siesta: Eharris =     -3068.272247
siesta: Etot    =     -3068.272247
siesta: FreeEng =     -3068.272250

siesta: Final energy (eV):
siesta:  Band Struct. =    -323.687187
siesta:       Kinetic =    3540.142282
siesta:       Hartree =   15307.725610
siesta:         Edftu =       0.000000
siesta:       Eso     =       0.000000
siesta:    Ext. field =       0.000000
siesta:         Exch. =   -1369.342780
siesta:         Corr. =     -87.051850
siesta:     Bulk bias =       0.000000
siesta:   Exch.-corr. =   -1456.394631
siesta:  Ion-electron =  -33707.164770
siesta:       Ion-ion =   13247.419262
siesta:       Ekinion =       0.000000
siesta: D3 dispersion =       0.000000
siesta:         Total =   -3068.272247
siesta:         Fermi =      -4.808894

siesta: Stress tensor (static) (eV/Ang**3):
siesta:     0.001126    0.000006    0.000001
siesta:     0.000006    0.001123   -0.000001
siesta:     0.000001   -0.000001    0.000034

siesta: Cell volume =        445.782898 Ang**3

siesta: Pressure (static):
siesta:                Solid            Molecule  Units
siesta:          -0.00000829         -0.00000815  Ry/Bohr**3
siesta:          -0.00076132         -0.00074839  eV/Ang**3
siesta:          -1.21976609         -1.19905568  kBar
(Free)E+ p_basis*V_orbitals  =       -3059.117958
(Free)Eharris+ p_basis*V_orbitals  =       -3059.117959

mulliken: Atomic and Orbital Populations:

mulliken: Spin UP 

Species: Fe                  
Atom  Qatom  Qorb
               4s      4s      3dxy    3dyz    3dz2    3dxz    3dx2-y2 3dxy    
               3dyz    3dz2    3dxz    3dx2-y2 4Ppy    4Ppz    4Ppx    
   4  5.418   0.223   0.167   1.033   0.980   1.067   0.980   1.033  -0.088
             -0.090  -0.105  -0.090  -0.088   0.131   0.132   0.131
   5  5.418   0.223   0.167   1.033   0.980   1.067   0.980   1.033  -0.088
             -0.090  -0.105  -0.090  -0.088   0.131   0.132   0.131
   6  5.075   0.350   0.086   1.006   1.043   0.821   1.043   1.006  -0.139
             -0.157  -0.072  -0.157  -0.139   0.127   0.130   0.127

Species: Ga                  
Atom  Qatom  Qorb
               4s      4s      4py     4pz     4px     4py     4pz     4px     
               4Pdxy   4Pdyz   4Pdz2   4Pdxz   4Pdx2-y2
   3  0.537   0.309   0.223  -0.872  -0.508  -0.872   0.868   0.515   0.868
              0.001   0.002   0.001   0.002   0.001

Species: Te                  
Atom  Qatom  Qorb
               5s      5s      5py     5pz     5px     5py     5pz     5px     
               5Pdxy   5Pdyz   5Pdz2   5Pdxz   5Pdx2-y2
   1  3.070   0.948   0.011   0.627   0.641   0.627   0.018   0.039   0.018
              0.026   0.031   0.027   0.031   0.026
   2  3.070   0.948   0.011   0.627   0.641   0.627   0.018   0.039   0.018
              0.026   0.031   0.027   0.031   0.026

mulliken: Qtot =       22.588

mulliken: Spin DOWN 

Species: Fe                  
Atom  Qatom  Qorb
               4s      4s      3dxy    3dyz    3dz2    3dxz    3dx2-y2 3dxy    
               3dyz    3dz2    3dxz    3dx2-y2 4Ppy    4Ppz    4Ppx    
   4  2.786   0.217   0.158   0.468   0.495   0.698   0.495   0.468  -0.092
             -0.106  -0.138  -0.106  -0.092   0.106   0.112   0.106
   5  2.786   0.217   0.158   0.468   0.495   0.698   0.495   0.468  -0.092
             -0.106  -0.138  -0.106  -0.092   0.106   0.112   0.106
   6  3.502   0.291   0.127   0.671   0.791   0.528   0.791   0.671  -0.145
             -0.183  -0.096  -0.183  -0.145   0.133   0.119   0.133

Species: Ga                  
Atom  Qatom  Qorb
               4s      4s      4py     4pz     4px     4py     4pz     4px     
               4Pdxy   4Pdyz   4Pdz2   4Pdxz   4Pdx2-y2
   3  0.817   0.423   0.189  -0.874  -0.523  -0.874   0.944   0.582   0.944
              0.001   0.002   0.001   0.002   0.001

Species: Te                  
Atom  Qatom  Qorb
               5s      5s      5py     5pz     5px     5py     5pz     5px     
               5Pdxy   5Pdyz   5Pdz2   5Pdxz   5Pdx2-y2
   1  3.260   0.954   0.010   0.708   0.640   0.709   0.031   0.047   0.030
              0.024   0.033   0.017   0.033   0.024
   2  3.260   0.954   0.010   0.708   0.640   0.709   0.030   0.047   0.030
              0.024   0.033   0.017   0.033   0.024

mulliken: Qtot =       16.412

Mulliken Atomic Populations:
Atom #   charge [q] valence [e]      Sz [e]  Species
     1    -0.329612    6.329612   -0.190527  Te
     2    -0.329623    6.329623   -0.190551  Te
     3     1.645947    1.354053   -0.279952  Ga
     4    -0.204918    8.204918    2.631999  Fe
     5    -0.204892    8.204892    2.632018  Fe
     6    -0.576902    8.576902    1.572530  Fe
-------------------------------------------
 Total     0.000000                6.175517

siesta: Electric dipole (a.u.)  =   -0.000000    0.000000    0.000011
siesta: Electric dipole (Debye) =   -0.000000    0.000000    0.000028

cite: Please indicate the Siesta version in published work: 5.2.2
cite: This calculation has made use of features in the following articles
cite: which we encourage you to cite in published work.
cite: (Please see "Fe3GaTe2_relax.bib" for a BibTeX file.)
        Primary SIESTA paper
          DOI: www.doi.org/10.1088/0953-8984/14/11/302


>> End of run:  23-APR-2025  15:41:53
Job completed
